   2   2   0   0
  0.1169683E+02  0.2860000E-09  0.2860000E-09  0.2860000E-09  0.5000000E-15
  1.000000000000000E-004
  CAR 
 Fe Bulk                                 
     56.14031736     -4.55407589  301      5.33077229      1.00000000
     -4.554  0.0000E+00  0.0000E+00  0.0000E+00  0.0000E+00
     -4.352  0.0000E+00  0.0000E+00  0.0000E+00  0.0000E+00
     -4.149  0.0000E+00  0.0000E+00  0.0000E+00  0.0000E+00
     -3.947  0.0000E+00  0.0000E+00  0.0000E+00  0.0000E+00
     -3.745  0.0000E+00  0.0000E+00  0.0000E+00  0.0000E+00
     -3.543 -0.5430E-34  0.0000E+00 -0.1099E-34  0.0000E+00
     -3.340 -0.8186E-27 -0.2729E-31 -0.1656E-27 -0.5521E-32
     -3.138 -0.1567E-20 -0.1950E-24 -0.3170E-21 -0.3945E-25
     -2.936 -0.3665E-15 -0.1766E-18 -0.7416E-16 -0.3573E-19
     -2.733 -0.1093E-10 -0.1944E-13 -0.2212E-11 -0.3934E-14
     -2.531 -0.3955E-07 -0.2711E-09 -0.8004E-08 -0.5484E-10
     -2.329 -0.1640E-04 -0.4523E-06 -0.3325E-05 -0.9155E-07
     -2.126 -0.6179E-03 -0.8268E-04 -0.1283E-03 -0.1682E-04
     -1.924  0.2529E-02 -0.9941E-03  0.3833E-03 -0.2179E-03
     -1.722  0.2249E-01  0.9566E-02  0.4932E-02  0.1717E-02
     -1.519  0.7517E-02  0.2151E-01  0.6453E-02  0.6070E-02
     -1.317 -0.9465E-03  0.1404E-02  0.6262E-02  0.6354E-02
     -1.115 -0.5716E-04 -0.5026E-03  0.6250E-02  0.6252E-02
     -0.912 -0.2548E-06 -0.1049E-04  0.6250E-02  0.6250E-02
     -0.710 -0.2501E-09 -0.2077E-07  0.6250E-02  0.6250E-02
     -0.508 -0.3285E-06 -0.7816E-11  0.6250E-02  0.6250E-02
     -0.305 -0.9821E-04 -0.1881E-07  0.6230E-02  0.6250E-02
     -0.103 -0.2433E-02 -0.1351E-04  0.5738E-02  0.6247E-02
      0.099  0.1478E-01 -0.9745E-03  0.8728E-02  0.6050E-02
      0.301  0.6917E-01  0.7658E-06  0.2272E-01  0.6050E-02
      0.504  0.1302E-01  0.5634E-01  0.2536E-01  0.1745E-01
      0.706 -0.4177E-02  0.4045E-01  0.2451E-01  0.2563E-01
      0.908  0.4613E-01 -0.2671E-02  0.3384E-01  0.2509E-01
      1.111  0.5637E-01 -0.4595E-03  0.4525E-01  0.2500E-01
      1.313  0.1020E+00 -0.3343E-03  0.6588E-01  0.2493E-01
      1.515  0.5098E-01 -0.2952E-02  0.7620E-01  0.2434E-01
      1.718  0.5470E-01  0.3400E-01  0.8726E-01  0.3121E-01
      1.920  0.7640E-01  0.6122E-01  0.1027E+00  0.4360E-01
      2.122  0.8029E-01  0.1917E-02  0.1190E+00  0.4399E-01
      2.325  0.1033E+00 -0.3664E-02  0.1399E+00  0.4325E-01
      2.527  0.1575E+00  0.1273E-01  0.1717E+00  0.4582E-01
      2.729  0.1023E+00  0.6993E-01  0.1924E+00  0.5997E-01
      2.932  0.9067E-01  0.8878E-01  0.2108E+00  0.7793E-01
      3.134  0.1355E+00  0.8065E-01  0.2382E+00  0.9425E-01
      3.336  0.1273E+00  0.4102E-01  0.2640E+00  0.1025E+00
      3.539  0.7376E-01  0.1579E-01  0.2789E+00  0.1057E+00
      3.741  0.6871E-01  0.3764E-01  0.2928E+00  0.1134E+00
      3.943  0.7332E-01  0.1567E+00  0.3076E+00  0.1451E+00
      4.145  0.5217E-01  0.1623E+00  0.3182E+00  0.1779E+00
      4.348  0.1587E+00  0.4434E-01  0.3503E+00  0.1869E+00
      4.550  0.2939E+00  0.3171E-01  0.4097E+00  0.1933E+00
      4.752  0.2173E+00  0.2526E+00  0.4537E+00  0.2444E+00
      4.955  0.5798E-01  0.1504E+00  0.4654E+00  0.2748E+00
      5.157  0.7579E-01  0.6359E-01  0.4807E+00  0.2877E+00
      5.359  0.1460E+00  0.3307E-01  0.5103E+00  0.2944E+00
      5.562  0.7867E-01 -0.2908E-02  0.5262E+00  0.2938E+00
      5.764 -0.5231E-02  0.1850E-01  0.5251E+00  0.2975E+00
      5.966 -0.3890E-02  0.8107E-02  0.5243E+00  0.2992E+00
      6.169  0.3687E-01  0.2625E-01  0.5318E+00  0.3045E+00
      6.371  0.5916E-01  0.1544E+00  0.5438E+00  0.3357E+00
      6.573  0.1035E-02  0.5955E-01  0.5440E+00  0.3477E+00
      6.776 -0.1121E-02  0.1298E+00  0.5438E+00  0.3740E+00
      6.978 -0.1753E-04  0.1161E+00  0.5438E+00  0.3975E+00
      7.180 -0.2717E-07  0.1094E+00  0.5437E+00  0.4196E+00
      7.382 -0.1183E-06  0.2501E+00  0.5437E+00  0.4702E+00
      7.585 -0.4910E-04  0.2171E+00  0.5437E+00  0.5141E+00
      7.787 -0.1852E-02  0.5723E-01  0.5434E+00  0.5257E+00
      7.989  0.7570E-02  0.2953E-01  0.5449E+00  0.5317E+00
      8.192  0.6726E-01  0.5937E-01  0.5585E+00  0.5437E+00
      8.394  0.1949E-01  0.1476E-02  0.5624E+00  0.5440E+00
      8.596  0.1974E-01 -0.1180E-02  0.5664E+00  0.5438E+00
      8.799  0.8325E-01 -0.1939E-04  0.5833E+00  0.5437E+00
      9.001  0.2351E-01 -0.2204E-04  0.5880E+00  0.5437E+00
      9.203 -0.2392E-02 -0.1263E-02  0.5876E+00  0.5435E+00
      9.406 -0.2752E-03  0.1826E-02  0.5875E+00  0.5439E+00
      9.608 -0.2510E-05  0.5843E-01  0.5875E+00  0.5557E+00
      9.810 -0.2644E-08  0.6513E-01  0.5875E+00  0.5689E+00
     10.013 -0.3368E-12  0.5909E-01  0.5875E+00  0.5808E+00
     10.215 -0.6860E-17  0.1762E-01  0.5875E+00  0.5844E+00
     10.417  0.0000E+00  0.1609E-01  0.5875E+00  0.5876E+00
     10.620 -0.3164E-31 -0.3813E-03  0.5875E+00  0.5876E+00
     10.822 -0.2418E-24 -0.2683E-03  0.5875E+00  0.5875E+00
     11.024 -0.2341E-18 -0.3187E-05  0.5875E+00  0.5875E+00
     11.226 -0.2758E-13 -0.3874E-08  0.5875E+00  0.5875E+00
     11.429 -0.4115E-09 -0.5532E-12  0.5875E+00  0.5875E+00
     11.631 -0.7360E-06 -0.6860E-17  0.5875E+00  0.5875E+00
     11.833 -0.1450E-03 -0.4331E-23  0.5875E+00  0.5875E+00
     12.036 -0.1967E-02 -0.2787E-17  0.5871E+00  0.5875E+00
     12.238  0.1756E-01 -0.2172E-12  0.5906E+00  0.5875E+00
     12.440  0.4204E-01 -0.2139E-08  0.5991E+00  0.5875E+00
     12.643  0.1057E-01 -0.2500E-05  0.6013E+00  0.5875E+00
     12.845  0.6600E-01 -0.3106E-03  0.6146E+00  0.5874E+00
     13.047  0.2346E-01 -0.1763E-02  0.6194E+00  0.5871E+00
     13.250 -0.2873E-02  0.2722E-01  0.6188E+00  0.5926E+00
     13.452 -0.2559E-03  0.3730E-01  0.6187E+00  0.6001E+00
     13.654 -0.1689E-02 -0.1977E-02  0.6184E+00  0.5997E+00
     13.857  0.1088E-01  0.7562E-02  0.6206E+00  0.6013E+00
     14.059  0.4604E-01  0.6776E-01  0.6299E+00  0.6150E+00
     14.261  0.8117E-02  0.2040E-01  0.6316E+00  0.6191E+00
     14.464 -0.2483E-02  0.1953E-02  0.6310E+00  0.6195E+00
     14.666  0.8206E-02  0.4462E-01  0.6327E+00  0.6285E+00
     14.868  0.2173E-01  0.1552E-01  0.6371E+00  0.6317E+00
     15.070  0.1953E-01 -0.1957E-02  0.6411E+00  0.6313E+00
     15.273  0.1412E-01 -0.1535E-02  0.6439E+00  0.6310E+00
     15.475 -0.3623E-02  0.7189E-02  0.6432E+00  0.6324E+00
     15.677  0.2234E-01  0.4565E-01  0.6477E+00  0.6416E+00
     15.880  0.6746E-01  0.1224E-01  0.6613E+00  0.6441E+00
     16.082  0.7600E-02 -0.1776E-02  0.6629E+00  0.6438E+00
     16.284 -0.1855E-02 -0.1381E-02  0.6625E+00  0.6435E+00
     16.487 -0.1081E-03  0.2377E-02  0.6625E+00  0.6440E+00
     16.689 -0.2526E-02  0.6189E-01  0.6620E+00  0.6565E+00
     16.891  0.7748E-02  0.3302E-01  0.6635E+00  0.6632E+00
     17.094  0.1054E+00 -0.2971E-02  0.6849E+00  0.6626E+00
     17.296  0.4699E-01 -0.5934E-03  0.6944E+00  0.6624E+00
     17.498  0.4064E-02 -0.4407E-02  0.6952E+00  0.6616E+00
     17.701  0.6758E-01  0.3483E-01  0.7089E+00  0.6686E+00
     17.903  0.2070E-01  0.1101E+00  0.7131E+00  0.6909E+00
     18.105 -0.3686E-02  0.1961E-01  0.7123E+00  0.6948E+00
     18.307  0.1293E-01  0.6011E-01  0.7149E+00  0.7070E+00
     18.510  0.1910E-01  0.3040E-01  0.7188E+00  0.7131E+00
     18.712  0.1019E-03 -0.3984E-02  0.7188E+00  0.7123E+00
     18.914 -0.9610E-03  0.9264E-02  0.7186E+00  0.7142E+00
     19.117 -0.2042E-02  0.2153E-01  0.7182E+00  0.7186E+00
     19.319  0.4683E-01  0.1389E-02  0.7277E+00  0.7188E+00
     19.521  0.5068E-01 -0.1910E-02  0.7379E+00  0.7185E+00
     19.724 -0.1414E-02  0.3303E-02  0.7377E+00  0.7191E+00
     19.926 -0.7436E-03  0.6337E-01  0.7375E+00  0.7320E+00
     20.128 -0.8312E-05  0.3070E-01  0.7375E+00  0.7382E+00
     20.331 -0.9611E-08 -0.2989E-02  0.7375E+00  0.7376E+00
     20.533 -0.1370E-06 -0.2772E-03  0.7375E+00  0.7375E+00
     20.735 -0.5431E-04 -0.1617E-05  0.7375E+00  0.7375E+00
     20.938 -0.1935E-02 -0.1357E-08  0.7371E+00  0.7375E+00
     21.140  0.8395E-02 -0.6857E-06  0.7388E+00  0.7375E+00
     21.342  0.6695E-01 -0.1598E-03  0.7523E+00  0.7375E+00
     21.545  0.2961E-01 -0.2801E-02  0.7583E+00  0.7369E+00
     21.747  0.1909E-01  0.2116E-01  0.7622E+00  0.7412E+00
     21.949 -0.1127E-02  0.6768E-01  0.7620E+00  0.7549E+00
     22.151  0.2683E-01  0.2649E-01  0.7674E+00  0.7602E+00
     22.354  0.6227E-01  0.1127E-01  0.7800E+00  0.7625E+00
     22.556  0.4417E-01 -0.3875E-02  0.7889E+00  0.7617E+00
     22.758  0.5553E-01  0.6834E-01  0.8002E+00  0.7756E+00
     22.961  0.1905E-03  0.1120E+00  0.8002E+00  0.7982E+00
     23.163 -0.2029E-02  0.1179E-01  0.7998E+00  0.8006E+00
     23.365  0.2914E-02 -0.2913E-02  0.8004E+00  0.8000E+00
     23.568  0.4316E-01 -0.1667E-03  0.8091E+00  0.8000E+00
     23.770  0.1843E-01 -0.1644E-02  0.8128E+00  0.7997E+00
     23.972 -0.4693E-02  0.1018E-01  0.8119E+00  0.8017E+00
     24.175  0.3976E-01  0.4610E-01  0.8199E+00  0.8110E+00
     24.377  0.5678E-01  0.8275E-02  0.8314E+00  0.8127E+00
     24.579  0.1254E-03 -0.3885E-02  0.8315E+00  0.8119E+00
     24.782 -0.2143E-02  0.4429E-01  0.8310E+00  0.8209E+00
     24.984  0.1217E-02  0.5297E-01  0.8313E+00  0.8316E+00
     25.186  0.5954E-01 -0.2119E-02  0.8433E+00  0.8312E+00
     25.388  0.3411E-01  0.7668E-03  0.8502E+00  0.8313E+00
     25.591  0.8033E-02  0.5970E-01  0.8518E+00  0.8434E+00
     25.793  0.6844E-01  0.3354E-01  0.8657E+00  0.8502E+00
     25.995  0.1790E-01  0.4669E-01  0.8693E+00  0.8596E+00
     26.198 -0.3551E-02  0.4756E-01  0.8686E+00  0.8693E+00
     26.400 -0.3809E-02 -0.2746E-02  0.8678E+00  0.8687E+00
     26.602  0.7293E-01  0.4361E-03  0.8826E+00  0.8688E+00
     26.805  0.8860E-01  0.3858E-01  0.9005E+00  0.8766E+00
     27.007 -0.9896E-03  0.6314E-01  0.9003E+00  0.8894E+00
     27.209 -0.1441E-02  0.5385E-01  0.9000E+00  0.9003E+00
     27.412 -0.1896E-04 -0.3692E-03  0.9000E+00  0.9002E+00
     27.614 -0.2373E-06 -0.9519E-03  0.9000E+00  0.9000E+00
     27.816 -0.5062E-04 -0.1290E-04  0.9000E+00  0.9000E+00
     28.019 -0.9218E-03 -0.1794E-07  0.8998E+00  0.9000E+00
     28.221  0.6787E-02 -0.6237E-06  0.9012E+00  0.9000E+00
     28.423  0.1997E-01 -0.1502E-03  0.9052E+00  0.9000E+00
     28.626  0.1661E-01 -0.2758E-02  0.9086E+00  0.8994E+00
     28.828  0.9161E-01  0.2038E-01  0.9271E+00  0.9035E+00
     29.030  0.7925E-01  0.6537E-01  0.9431E+00  0.9168E+00
     29.232  0.4920E-02  0.2697E-01  0.9441E+00  0.9222E+00
     29.435 -0.1912E-02  0.8557E-01  0.9438E+00  0.9395E+00
     29.637 -0.1279E-02  0.2436E-01  0.9435E+00  0.9445E+00
     29.839  0.1794E-02 -0.3318E-02  0.9439E+00  0.9438E+00
     30.042  0.5997E-01 -0.1209E-02  0.9560E+00  0.9435E+00
     30.244  0.4396E-01  0.2926E-03  0.9649E+00  0.9436E+00
     30.446  0.1809E-01  0.5696E-01  0.9685E+00  0.9551E+00
     30.649 -0.1611E-02  0.3778E-01  0.9682E+00  0.9628E+00
     30.851  0.3968E-01  0.1358E-01  0.9762E+00  0.9655E+00
     31.053  0.6120E-01  0.8350E-01  0.9886E+00  0.9824E+00
     31.256  0.2288E-01  0.5912E-01  0.9933E+00  0.9944E+00
     31.458  0.3231E-02 -0.2196E-02  0.9939E+00  0.9939E+00
     31.660 -0.7710E-03 -0.8599E-03  0.9938E+00  0.9938E+00
     31.863 -0.2713E-04 -0.1085E-04  0.9938E+00  0.9938E+00
     32.065 -0.2110E-04 -0.1573E-07  0.9937E+00  0.9937E+00
     32.267 -0.1232E-02 -0.1746E-06  0.9935E+00  0.9937E+00
     32.470  0.1884E-02 -0.6409E-04  0.9939E+00  0.9937E+00
     32.672  0.6098E-01 -0.2073E-02  0.1006E+01  0.9933E+00
     32.874  0.3435E-01  0.1004E-01  0.1013E+01  0.9953E+00
     33.076 -0.2944E-02  0.6856E-01  0.1013E+01  0.1009E+01
     33.279 -0.3367E-03  0.1904E-01  0.1013E+01  0.1013E+01
     33.481 -0.2650E-05 -0.2685E-02  0.1012E+01  0.1013E+01
     33.683 -0.1278E-03 -0.1366E-03  0.1012E+01  0.1012E+01
     33.886 -0.3403E-02 -0.2211E-03  0.1012E+01  0.1012E+01
     34.088  0.1615E-01 -0.2989E-02  0.1015E+01  0.1012E+01
     34.290  0.1208E+00  0.2507E-01  0.1039E+01  0.1017E+01
     34.493  0.5607E-01  0.7055E-01  0.1051E+01  0.1031E+01
     34.695  0.5175E-01  0.7044E-01  0.1061E+01  0.1045E+01
     34.897  0.3992E-01  0.2312E-01  0.1069E+01  0.1050E+01
     35.100 -0.2670E-02  0.1299E-01  0.1069E+01  0.1053E+01
     35.302 -0.4609E-03  0.6887E-01  0.1069E+01  0.1067E+01
     35.504 -0.2379E-03  0.1256E-01  0.1069E+01  0.1069E+01
     35.707 -0.2569E-02 -0.2856E-02  0.1068E+01  0.1069E+01
     35.909  0.2274E-01 -0.1626E-02  0.1073E+01  0.1068E+01
     36.111  0.7725E-01  0.3808E-01  0.1088E+01  0.1076E+01
     36.313  0.2925E-01  0.7206E-01  0.1094E+01  0.1091E+01
     36.516 -0.2830E-02  0.1810E-01  0.1094E+01  0.1094E+01
     36.718 -0.6672E-02 -0.2354E-02  0.1092E+01  0.1094E+01
     36.920  0.3909E-01 -0.1983E-03  0.1100E+01  0.1094E+01
     37.123  0.1919E+00 -0.1999E-02  0.1139E+01  0.1093E+01
     37.325  0.1078E+00 -0.5611E-02  0.1161E+01  0.1092E+01
     37.527  0.1054E-01  0.1381E+00  0.1163E+01  0.1120E+01
     37.730 -0.3771E-02  0.2073E+00  0.1162E+01  0.1162E+01
     37.932  0.7067E-02  0.3877E-01  0.1164E+01  0.1170E+01
     38.134  0.2261E-01 -0.5453E-02  0.1168E+01  0.1169E+01
     38.337  0.2747E-02 -0.4558E-03  0.1169E+01  0.1169E+01
     38.539 -0.6382E-03 -0.3073E-05  0.1169E+01  0.1169E+01
     38.741 -0.1766E-04 -0.2395E-08  0.1169E+01  0.1169E+01
     38.944 -0.4411E-07 -0.2358E-12  0.1169E+01  0.1169E+01
     39.146 -0.1084E-06 -0.9726E-10  0.1169E+01  0.1169E+01
     39.348 -0.5186E-04 -0.3121E-06  0.1169E+01  0.1169E+01
     39.551 -0.2511E-02 -0.1160E-03  0.1168E+01  0.1169E+01
     39.753  0.5191E-02 -0.3910E-02  0.1169E+01  0.1168E+01
     39.955  0.1176E+00  0.1774E-01  0.1193E+01  0.1172E+01
     40.157  0.6766E-01  0.1353E+00  0.1207E+01  0.1199E+01
     40.360  0.2185E-01  0.4067E-01  0.1211E+01  0.1207E+01
     40.562  0.1086E+00 -0.3002E-02  0.1233E+01  0.1207E+01
     40.764  0.5241E-01  0.6643E-01  0.1244E+01  0.1220E+01
     40.967  0.2155E-01  0.9451E-01  0.1248E+01  0.1239E+01
     41.169  0.6613E-01  0.2665E-01  0.1261E+01  0.1244E+01
     41.371  0.6836E-02 -0.3776E-02  0.1263E+01  0.1244E+01
     41.574 -0.1783E-02 -0.2784E-02  0.1263E+01  0.1243E+01
     41.776 -0.1127E-03  0.4238E-01  0.1262E+01  0.1252E+01
     41.978 -0.9860E-03  0.5472E-01  0.1262E+01  0.1263E+01
     42.181  0.7532E-02 -0.4813E-03  0.1264E+01  0.1263E+01
     42.383  0.2153E-01 -0.9392E-03  0.1268E+01  0.1262E+01
     42.585  0.5627E-01 -0.1935E-02  0.1280E+01  0.1262E+01
     42.788  0.4123E-01  0.4851E-02  0.1288E+01  0.1263E+01
     42.990  0.7536E-02  0.8506E-01  0.1289E+01  0.1280E+01
     43.192  0.2072E-01  0.3995E-01  0.1294E+01  0.1288E+01
     43.394  0.1282E-03 -0.4595E-02  0.1294E+01  0.1287E+01
     43.597 -0.2021E-02  0.1295E-02  0.1293E+01  0.1288E+01
     43.799  0.6824E-01  0.2376E-01  0.1307E+01  0.1293E+01
     44.001  0.6451E-01  0.3163E-01  0.1320E+01  0.1299E+01
     44.204  0.4126E-01  0.6605E-01  0.1328E+01  0.1312E+01
     44.406  0.1604E-01  0.3439E-01  0.1332E+01  0.1319E+01
     44.608 -0.2093E-02 -0.9107E-03  0.1331E+01  0.1319E+01
     44.811 -0.3944E-02  0.4156E-01  0.1330E+01  0.1327E+01
     45.013  0.2117E-01  0.1895E-01  0.1335E+01  0.1331E+01
     45.215  0.1152E+00  0.6443E-02  0.1358E+01  0.1333E+01
     45.418  0.2641E-01  0.6691E-01  0.1363E+01  0.1346E+01
     45.620 -0.5064E-02  0.2250E-01  0.1362E+01  0.1351E+01
     45.822 -0.7074E-03  0.3783E-01  0.1362E+01  0.1358E+01
     46.025  0.5454E-01  0.2103E-01  0.1373E+01  0.1363E+01
     46.227  0.4258E-01  0.4067E-02  0.1382E+01  0.1363E+01
     46.429 -0.3074E-02  0.6613E-01  0.1381E+01  0.1377E+01
     46.632 -0.1053E-02  0.2468E-01  0.1381E+01  0.1382E+01
     46.834  0.3436E-01 -0.3979E-02  0.1388E+01  0.1381E+01
     47.036  0.3185E-01  0.3287E-01  0.1394E+01  0.1388E+01
     47.238  0.5927E-01  0.2948E-01  0.1406E+01  0.1394E+01
     47.441  0.4299E-01  0.1270E-01  0.1415E+01  0.1396E+01
     47.643  0.4176E-01  0.6784E-01  0.1424E+01  0.1410E+01
     47.845  0.9050E-02  0.1964E-01  0.1425E+01  0.1414E+01
     48.048  0.5898E-01  0.2578E-01  0.1437E+01  0.1419E+01
     48.250  0.3505E-01  0.2651E-01  0.1444E+01  0.1424E+01
     48.452 -0.2926E-02  0.1810E-02  0.1444E+01  0.1425E+01
     48.655 -0.5727E-03  0.5537E-02  0.1444E+01  0.1426E+01
     48.857 -0.2978E-02  0.6656E-01  0.1443E+01  0.1439E+01
     49.059  0.2588E-01  0.2464E-01  0.1448E+01  0.1444E+01
     49.262  0.6775E-01 -0.2995E-02  0.1462E+01  0.1444E+01
     49.464  0.4710E-01 -0.2580E-02  0.1472E+01  0.1443E+01
     49.666  0.1589E-01  0.1199E-01  0.1475E+01  0.1446E+01
     49.869  0.2798E-01  0.7641E-01  0.1480E+01  0.1461E+01
     50.071  0.6339E-01  0.6007E-01  0.1493E+01  0.1473E+01
     50.273  0.2635E-03  0.4200E-02  0.1493E+01  0.1474E+01
     50.476  0.2120E-01  0.7578E-01  0.1498E+01  0.1489E+01
     50.678  0.1049E+00  0.1147E+00  0.1519E+01  0.1513E+01
     50.880  0.6363E-01  0.1176E-02  0.1532E+01  0.1513E+01
     51.082 -0.1217E-02 -0.5256E-02  0.1531E+01  0.1512E+01
     51.285 -0.1844E-02  0.1924E-01  0.1531E+01  0.1516E+01
     51.487 -0.9364E-03  0.9088E-01  0.1531E+01  0.1534E+01
     51.689  0.3695E-01  0.1999E-01  0.1538E+01  0.1538E+01
     51.892  0.1308E+00 -0.3761E-02  0.1565E+01  0.1537E+01
     52.094  0.8706E-01 -0.1009E-02  0.1582E+01  0.1537E+01
     52.296 -0.4893E-02  0.3014E-01  0.1581E+01  0.1543E+01
     52.499 -0.2190E-02  0.1103E+00  0.1581E+01  0.1566E+01
     52.701  0.6896E-03  0.7873E-01  0.1581E+01  0.1582E+01
     52.903  0.5833E-01 -0.1931E-03  0.1593E+01  0.1582E+01
     53.106  0.3796E-01 -0.4287E-02  0.1601E+01  0.1581E+01
     53.308 -0.2816E-02  0.2253E-01  0.1600E+01  0.1585E+01
     53.510 -0.4046E-03  0.6746E-01  0.1600E+01  0.1599E+01
     53.713 -0.2972E-05  0.7587E-02  0.1600E+01  0.1600E+01
     53.915 -0.2339E-08 -0.1854E-02  0.1600E+01  0.1600E+01
     54.117 -0.2190E-12 -0.4919E-04  0.1600E+01  0.1600E+01
     54.319  0.0000E+00 -0.1187E-06  0.1600E+01  0.1600E+01
     54.522  0.0000E+00 -0.3280E-10  0.1600E+01  0.1600E+01
     54.724  0.0000E+00 -0.1091E-14  0.1600E+01  0.1600E+01
     54.926  0.0000E+00  0.0000E+00  0.1600E+01  0.1600E+01
     55.129  0.0000E+00  0.0000E+00  0.1600E+01  0.1600E+01
     55.331  0.0000E+00  0.0000E+00  0.1600E+01  0.1600E+01
     55.533  0.0000E+00  0.0000E+00  0.1600E+01  0.1600E+01
     55.736  0.0000E+00  0.0000E+00  0.1600E+01  0.1600E+01
     55.938  0.0000E+00  0.0000E+00  0.1600E+01  0.1600E+01
     56.140  0.0000E+00  0.0000E+00  0.1600E+01  0.1600E+01
