    2    2   20    2
  0.1169683E+02  0.2860000E-09  0.2860000E-09  0.2860000E-09  0.5000000E-15
  1.000000000000000E-004
  CAR 
 Fe Bulk                                 
     16     32     32
 
  0.1250000E+00  0.1250000E+00  0.1250000E+00  0.3125000E-01
    1       -1.795240     -1.666141   1.000000   1.000000
    2        1.230332      3.013383   1.000000   1.000000
    3        1.230333      3.013383   1.000000   1.000000
    4        3.062296      4.877006   1.000000   1.003054
    5        3.062296      4.877006   1.000000   1.003054
    6        3.833645      5.738045   1.000000  -0.007096
    7        4.361206      6.245711   1.000000  -0.000000
    8        4.361206      7.009950   1.000000  -0.000000
    9        4.388322      7.009950   1.000000  -0.000000
   10        5.354475      7.432391   0.400481  -0.000000
   11        5.354475      7.432391   0.400481  -0.000000
   12       13.950313     14.594445   0.000000   0.000000
   13       13.950313     14.594445   0.000000   0.000000
   14       15.058537     15.600900   0.000000   0.000000
   15       23.511047     24.069736   0.000000   0.000000
   16       23.511047     24.069736   0.000000   0.000000
   17       26.596444     26.761487   0.000000   0.000000
   18       26.596444     26.761487   0.000000   0.000000
   19       28.300202     29.274812   0.000000   0.000000
   20       30.299375     30.844650   0.000000   0.000000
   21       31.148106     31.095949   0.000000   0.000000
   22       35.948227     36.260281   0.000000   0.000000
   23       35.948227     36.260282   0.000000   0.000000
   24       36.972792     37.517989   0.000000   0.000000
   25       36.972792     37.517989   0.000000   0.000000
   26       40.354169     40.685525   0.000000   0.000000
   27       42.246082     42.942124   0.000000   0.000000
   28       44.138192     44.762564   0.000000   0.000000
   29       44.138192     44.762564   0.000000   0.000000
   30       47.535651     47.933347   0.000000   0.000000
   31       49.414126     49.982718   0.000000   0.000000
   32       49.414126     49.982718   0.000000   0.000000
 
  0.3750000E+00  0.1250000E+00  0.1250000E+00  0.3125000E-01
    1        0.198334      0.480624   1.000000   1.000000
    2        1.672133      2.886510   1.000000   1.000000
    3        1.977762      3.862235   1.000000   1.000000
    4        2.783686      4.605653   1.000000   1.000002
    5        2.992519      4.695073   1.000000   1.000033
    6        3.348146      5.122480   1.000000   1.028912
    7        3.955085      6.272225   1.000000  -0.000000
    8        4.288291      6.302294   1.000000  -0.000000
    9        4.628400      6.694659   1.000004  -0.000000
   10        4.960008      7.323462   1.012450  -0.000000
   11        5.201157      7.498766   0.940423  -0.000000
   12        8.118255      9.566383  -0.000000  -0.000000
   13       17.019958     17.800855   0.000000   0.000000
   14       17.621691     18.257287   0.000000   0.000000
   15       21.264527     21.823748   0.000000   0.000000
   16       22.209437     22.741788   0.000000   0.000000
   17       25.151595     25.553189   0.000000   0.000000
   18       26.629340     27.028493   0.000000   0.000000
   19       28.718515     28.907674   0.000000   0.000000
   20       28.899332     29.364618   0.000000   0.000000
   21       32.632014     32.991818   0.000000   0.000000
   22       34.178999     34.635309   0.000000   0.000000
   23       37.033288     37.524062   0.000000   0.000000
   24       37.233084     37.676344   0.000000   0.000000
   25       40.470029     40.913519   0.000000   0.000000
   26       42.568470     42.936523   0.000000   0.000000
   27       43.789858     44.169315   0.000000   0.000000
   28       45.118255     45.340032   0.000000   0.000000
   29       46.007245     46.363456   0.000000   0.000000
   30       48.009988     48.789704   0.000000   0.000000
   31       50.705740     51.374727   0.000000   0.000000
   32       51.885594     52.544056   0.000000   0.000000
 
 -0.3750000E+00  0.1250000E+00  0.1250000E+00  0.3125000E-01
    1        0.198334      0.480624   1.000000   1.000000
    2        1.672133      2.886510   1.000000   1.000000
    3        1.977762      3.862235   1.000000   1.000000
    4        2.783686      4.605653   1.000000   1.000002
    5        2.992519      4.695073   1.000000   1.000033
    6        3.348146      5.122480   1.000000   1.028912
    7        3.955085      6.272226   1.000000  -0.000000
    8        4.288291      6.302294   1.000000  -0.000000
    9        4.628400      6.694659   1.000004  -0.000000
   10        4.960008      7.323462   1.012450  -0.000000
   11        5.201157      7.498766   0.940423  -0.000000
   12        8.118255      9.566383  -0.000000  -0.000000
   13       17.019958     17.800855   0.000000   0.000000
   14       17.621691     18.257287   0.000000   0.000000
   15       21.264527     21.823748   0.000000   0.000000
   16       22.209437     22.741788   0.000000   0.000000
   17       25.151595     25.553189   0.000000   0.000000
   18       26.629340     27.028493   0.000000   0.000000
   19       28.718515     28.907674   0.000000   0.000000
   20       28.899332     29.364618   0.000000   0.000000
   21       32.632014     32.991818   0.000000   0.000000
   22       34.178999     34.635309   0.000000   0.000000
   23       37.033288     37.524062   0.000000   0.000000
   24       37.233084     37.676344   0.000000   0.000000
   25       40.470029     40.913519   0.000000   0.000000
   26       42.568470     42.936523   0.000000   0.000000
   27       43.789858     44.169315   0.000000   0.000000
   28       45.118255     45.340032   0.000000   0.000000
   29       46.007245     46.363456   0.000000   0.000000
   30       48.009988     48.789704   0.000000   0.000000
   31       50.705740     51.374727   0.000000   0.000000
   32       51.885595     52.544056   0.000000   0.000000
 
 -0.1250000E+00  0.1250000E+00  0.1250000E+00  0.3125000E-01
    1       -1.795240     -1.666141   1.000000   1.000000
    2        1.230332      3.013383   1.000000   1.000000
    3        1.230333      3.013383   1.000000   1.000000
    4        3.062296      4.877006   1.000000   1.003054
    5        3.062296      4.877006   1.000000   1.003054
    6        3.833645      5.738045   1.000000  -0.007096
    7        4.361206      6.245711   1.000000  -0.000000
    8        4.361206      7.009950   1.000000  -0.000000
    9        4.388322      7.009950   1.000000  -0.000000
   10        5.354475      7.432391   0.400481  -0.000000
   11        5.354475      7.432391   0.400481  -0.000000
   12       13.950313     14.594445   0.000000   0.000000
   13       13.950313     14.594445   0.000000   0.000000
   14       15.058537     15.600901   0.000000   0.000000
   15       23.511047     24.069736   0.000000   0.000000
   16       23.511047     24.069737   0.000000   0.000000
   17       26.596444     26.761487   0.000000   0.000000
   18       26.596444     26.761487   0.000000   0.000000
   19       28.300202     29.274812   0.000000   0.000000
   20       30.299375     30.844650   0.000000   0.000000
   21       31.148106     31.095949   0.000000   0.000000
   22       35.948227     36.260281   0.000000   0.000000
   23       35.948227     36.260282   0.000000   0.000000
   24       36.972792     37.517989   0.000000   0.000000
   25       36.972792     37.517989   0.000000   0.000000
   26       40.354169     40.685525   0.000000   0.000000
   27       42.246082     42.942124   0.000000   0.000000
   28       44.138192     44.762564   0.000000   0.000000
   29       44.138192     44.762564   0.000000   0.000000
   30       47.535651     47.933347   0.000000   0.000000
   31       49.414126     49.982718   0.000000   0.000000
   32       49.414126     49.982718   0.000000   0.000000
 
  0.1250000E+00  0.3750000E+00  0.1250000E+00  0.3125000E-01
    1        0.198334      0.480624   1.000000   1.000000
    2        1.672133      2.886510   1.000000   1.000000
    3        1.977762      3.862235   1.000000   1.000000
    4        2.783686      4.605653   1.000000   1.000002
    5        2.992519      4.695073   1.000000   1.000033
    6        3.348146      5.122480   1.000000   1.028912
    7        3.955085      6.272225   1.000000  -0.000000
    8        4.288291      6.302294   1.000000  -0.000000
    9        4.628400      6.694659   1.000004  -0.000000
   10        4.960008      7.323462   1.012450  -0.000000
   11        5.201157      7.498766   0.940423  -0.000000
   12        8.118255      9.566383  -0.000000  -0.000000
   13       17.019958     17.800855   0.000000   0.000000
   14       17.621691     18.257287   0.000000   0.000000
   15       21.264527     21.823748   0.000000   0.000000
   16       22.209437     22.741788   0.000000   0.000000
   17       25.151595     25.553189   0.000000   0.000000
   18       26.629340     27.028493   0.000000   0.000000
   19       28.718515     28.907674   0.000000   0.000000
   20       28.899331     29.364618   0.000000   0.000000
   21       32.632014     32.991818   0.000000   0.000000
   22       34.178999     34.635309   0.000000   0.000000
   23       37.033287     37.524062   0.000000   0.000000
   24       37.233084     37.676344   0.000000   0.000000
   25       40.470029     40.913519   0.000000   0.000000
   26       42.568470     42.936523   0.000000   0.000000
   27       43.789858     44.169315   0.000000   0.000000
   28       45.118255     45.340032   0.000000   0.000000
   29       46.007245     46.363456   0.000000   0.000000
   30       48.009988     48.789704   0.000000   0.000000
   31       50.705740     51.374727   0.000000   0.000000
   32       51.885594     52.544056   0.000000   0.000000
 
  0.3750000E+00  0.3750000E+00  0.1250000E+00  0.3125000E-01
    1        0.908607      1.758438   1.000000   1.000000
    2        1.279046      2.628338   1.000000   1.000000
    3        2.333948      3.993593   1.000000   1.000000
    4        2.492175      4.154146   1.000000   1.000000
    5        3.200191      4.703971   1.000000   1.000043
    6        3.620783      4.728993   1.000000   1.000089
    7        4.345822      6.691470   1.000000  -0.000000
    8        4.450313      6.942774   1.000000  -0.000000
    9        4.569990      7.293461   1.000001  -0.000000
   10        5.350243      7.581268   0.418045  -0.000000
   11        6.201510      8.026083  -0.000000  -0.000000
   12        8.668072      9.857617  -0.000000  -0.000000
   13       12.774252     13.982399   0.000000   0.000000
   14       15.751020     16.645492   0.000000   0.000000
   15       19.324592     19.876102   0.000000   0.000000
   16       22.581729     22.859700   0.000000   0.000000
   17       24.199231     24.794035   0.000000   0.000000
   18       25.704800     25.993013   0.000000   0.000000
   19       30.001981     30.420217   0.000000   0.000000
   20       30.872590     31.026873   0.000000   0.000000
   21       34.278332     34.351724   0.000000   0.000000
   22       34.672054     35.194484   0.000000   0.000000
   23       37.037260     37.523795   0.000000   0.000000
   24       39.886918     40.065733   0.000000   0.000000
   25       39.948083     40.091967   0.000000   0.000000
   26       41.036669     41.793873   0.000000   0.000000
   27       47.192025     47.542799   0.000000   0.000000
   28       49.120225     49.770432   0.000000   0.000000
   29       49.920380     50.488723   0.000000   0.000000
   30       50.540486     50.517504   0.000000   0.000000
   31       51.873369     52.408507   0.000000   0.000000
   32       52.873339     53.381481   0.000000   0.000000
 
 -0.3750000E+00  0.3750000E+00  0.1250000E+00  0.3125000E-01
    1        0.908607      1.758438   1.000000   1.000000
    2        1.279045      2.628338   1.000000   1.000000
    3        2.333948      3.993593   1.000000   1.000000
    4        2.492175      4.154146   1.000000   1.000000
    5        3.200191      4.703971   1.000000   1.000043
    6        3.620783      4.728993   1.000000   1.000089
    7        4.345822      6.691470   1.000000  -0.000000
    8        4.450313      6.942774   1.000000  -0.000000
    9        4.569990      7.293461   1.000001  -0.000000
   10        5.350243      7.581268   0.418045  -0.000000
   11        6.201510      8.026083  -0.000000  -0.000000
   12        8.668072      9.857617  -0.000000  -0.000000
   13       12.774252     13.982399   0.000000   0.000000
   14       15.751020     16.645492   0.000000   0.000000
   15       19.324592     19.876102   0.000000   0.000000
   16       22.581729     22.859700   0.000000   0.000000
   17       24.199231     24.794035   0.000000   0.000000
   18       25.704800     25.993013   0.000000   0.000000
   19       30.001981     30.420217   0.000000   0.000000
   20       30.872590     31.026873   0.000000   0.000000
   21       34.278332     34.351724   0.000000   0.000000
   22       34.672054     35.194484   0.000000   0.000000
   23       37.037261     37.523795   0.000000   0.000000
   24       39.886919     40.065734   0.000000   0.000000
   25       39.948082     40.091967   0.000000   0.000000
   26       41.036669     41.793873   0.000000   0.000000
   27       47.192026     47.542798   0.000000   0.000000
   28       49.120225     49.770432   0.000000   0.000000
   29       49.920380     50.488723   0.000000   0.000000
   30       50.540486     50.517504   0.000000   0.000000
   31       51.873369     52.408507   0.000000   0.000000
   32       52.873339     53.381481   0.000000   0.000000
 
 -0.1250000E+00  0.3750000E+00  0.1250000E+00  0.3125000E-01
    1        0.198334      0.480624   1.000000   1.000000
    2        1.672133      2.886510   1.000000   1.000000
    3        1.977762      3.862235   1.000000   1.000000
    4        2.783686      4.605653   1.000000   1.000002
    5        2.992519      4.695073   1.000000   1.000033
    6        3.348146      5.122480   1.000000   1.028912
    7        3.955085      6.272225   1.000000  -0.000000
    8        4.288291      6.302294   1.000000  -0.000000
    9        4.628400      6.694659   1.000004  -0.000000
   10        4.960008      7.323462   1.012450  -0.000000
   11        5.201157      7.498766   0.940423  -0.000000
   12        8.118255      9.566383  -0.000000  -0.000000
   13       17.019957     17.800855   0.000000   0.000000
   14       17.621691     18.257287   0.000000   0.000000
   15       21.264527     21.823748   0.000000   0.000000
   16       22.209437     22.741788   0.000000   0.000000
   17       25.151595     25.553189   0.000000   0.000000
   18       26.629340     27.028493   0.000000   0.000000
   19       28.718515     28.907674   0.000000   0.000000
   20       28.899331     29.364618   0.000000   0.000000
   21       32.632014     32.991818   0.000000   0.000000
   22       34.178998     34.635309   0.000000   0.000000
   23       37.033288     37.524062   0.000000   0.000000
   24       37.233084     37.676344   0.000000   0.000000
   25       40.470029     40.913519   0.000000   0.000000
   26       42.568470     42.936523   0.000000   0.000000
   27       43.789858     44.169315   0.000000   0.000000
   28       45.118255     45.340032   0.000000   0.000000
   29       46.007245     46.363456   0.000000   0.000000
   30       48.009988     48.789704   0.000000   0.000000
   31       50.705740     51.374727   0.000000   0.000000
   32       51.885595     52.544056   0.000000   0.000000
 
  0.1250000E+00 -0.3750000E+00  0.1250000E+00  0.3125000E-01
    1        0.198334      0.480624   1.000000   1.000000
    2        1.672133      2.886510   1.000000   1.000000
    3        1.977762      3.862235   1.000000   1.000000
    4        2.783686      4.605653   1.000000   1.000002
    5        2.992519      4.695073   1.000000   1.000033
    6        3.348146      5.122480   1.000000   1.028912
    7        3.955085      6.272225   1.000000  -0.000000
    8        4.288291      6.302294   1.000000  -0.000000
    9        4.628400      6.694659   1.000004  -0.000000
   10        4.960008      7.323462   1.012450  -0.000000
   11        5.201157      7.498766   0.940423  -0.000000
   12        8.118255      9.566383  -0.000000  -0.000000
   13       17.019958     17.800855   0.000000   0.000000
   14       17.621691     18.257287   0.000000   0.000000
   15       21.264527     21.823748   0.000000   0.000000
   16       22.209437     22.741788   0.000000   0.000000
   17       25.151595     25.553189   0.000000   0.000000
   18       26.629340     27.028493   0.000000   0.000000
   19       28.718515     28.907674   0.000000   0.000000
   20       28.899332     29.364618   0.000000   0.000000
   21       32.632014     32.991818   0.000000   0.000000
   22       34.178999     34.635309   0.000000   0.000000
   23       37.033287     37.524062   0.000000   0.000000
   24       37.233084     37.676344   0.000000   0.000000
   25       40.470029     40.913519   0.000000   0.000000
   26       42.568470     42.936523   0.000000   0.000000
   27       43.789858     44.169315   0.000000   0.000000
   28       45.118256     45.340032   0.000000   0.000000
   29       46.007245     46.363456   0.000000   0.000000
   30       48.009988     48.789704   0.000000   0.000000
   31       50.705739     51.374727   0.000000   0.000000
   32       51.885595     52.544056   0.000000   0.000000
 
  0.3750000E+00 -0.3750000E+00  0.1250000E+00  0.3125000E-01
    1        0.908607      1.758438   1.000000   1.000000
    2        1.279045      2.628338   1.000000   1.000000
    3        2.333948      3.993593   1.000000   1.000000
    4        2.492175      4.154146   1.000000   1.000000
    5        3.200191      4.703971   1.000000   1.000043
    6        3.620783      4.728993   1.000000   1.000089
    7        4.345822      6.691470   1.000000  -0.000000
    8        4.450313      6.942774   1.000000  -0.000000
    9        4.569990      7.293461   1.000001  -0.000000
   10        5.350243      7.581268   0.418045  -0.000000
   11        6.201509      8.026083  -0.000000  -0.000000
   12        8.668072      9.857617  -0.000000  -0.000000
   13       12.774252     13.982399   0.000000   0.000000
   14       15.751020     16.645492   0.000000   0.000000
   15       19.324592     19.876102   0.000000   0.000000
   16       22.581729     22.859700   0.000000   0.000000
   17       24.199231     24.794035   0.000000   0.000000
   18       25.704800     25.993014   0.000000   0.000000
   19       30.001981     30.420217   0.000000   0.000000
   20       30.872590     31.026873   0.000000   0.000000
   21       34.278332     34.351724   0.000000   0.000000
   22       34.672054     35.194484   0.000000   0.000000
   23       37.037260     37.523795   0.000000   0.000000
   24       39.886919     40.065734   0.000000   0.000000
   25       39.948082     40.091966   0.000000   0.000000
   26       41.036669     41.793873   0.000000   0.000000
   27       47.192026     47.542798   0.000000   0.000000
   28       49.120225     49.770432   0.000000   0.000000
   29       49.920380     50.488723   0.000000   0.000000
   30       50.540486     50.517504   0.000000   0.000000
   31       51.873369     52.408507   0.000000   0.000000
   32       52.873338     53.381481   0.000000   0.000000
 
 -0.3750000E+00 -0.3750000E+00  0.1250000E+00  0.3125000E-01
    1        0.908607      1.758438   1.000000   1.000000
    2        1.279046      2.628338   1.000000   1.000000
    3        2.333948      3.993593   1.000000   1.000000
    4        2.492175      4.154146   1.000000   1.000000
    5        3.200191      4.703971   1.000000   1.000043
    6        3.620783      4.728993   1.000000   1.000089
    7        4.345822      6.691470   1.000000  -0.000000
    8        4.450313      6.942774   1.000000  -0.000000
    9        4.569990      7.293461   1.000001  -0.000000
   10        5.350243      7.581268   0.418045  -0.000000
   11        6.201510      8.026083  -0.000000  -0.000000
   12        8.668072      9.857617  -0.000000  -0.000000
   13       12.774252     13.982399   0.000000   0.000000
   14       15.751020     16.645492   0.000000   0.000000
   15       19.324592     19.876102   0.000000   0.000000
   16       22.581729     22.859700   0.000000   0.000000
   17       24.199231     24.794035   0.000000   0.000000
   18       25.704800     25.993014   0.000000   0.000000
   19       30.001981     30.420217   0.000000   0.000000
   20       30.872590     31.026873   0.000000   0.000000
   21       34.278332     34.351724   0.000000   0.000000
   22       34.672054     35.194484   0.000000   0.000000
   23       37.037260     37.523795   0.000000   0.000000
   24       39.886919     40.065733   0.000000   0.000000
   25       39.948083     40.091966   0.000000   0.000000
   26       41.036669     41.793873   0.000000   0.000000
   27       47.192025     47.542799   0.000000   0.000000
   28       49.120225     49.770432   0.000000   0.000000
   29       49.920380     50.488723   0.000000   0.000000
   30       50.540486     50.517504   0.000000   0.000000
   31       51.873369     52.408507   0.000000   0.000000
   32       52.873339     53.381481   0.000000   0.000000
 
 -0.1250000E+00 -0.3750000E+00  0.1250000E+00  0.3125000E-01
    1        0.198334      0.480624   1.000000   1.000000
    2        1.672133      2.886510   1.000000   1.000000
    3        1.977762      3.862235   1.000000   1.000000
    4        2.783686      4.605653   1.000000   1.000002
    5        2.992519      4.695073   1.000000   1.000033
    6        3.348147      5.122480   1.000000   1.028912
    7        3.955085      6.272225   1.000000  -0.000000
    8        4.288291      6.302294   1.000000  -0.000000
    9        4.628400      6.694659   1.000004  -0.000000
   10        4.960008      7.323462   1.012450  -0.000000
   11        5.201157      7.498766   0.940423  -0.000000
   12        8.118255      9.566383  -0.000000  -0.000000
   13       17.019958     17.800855   0.000000   0.000000
   14       17.621691     18.257287   0.000000   0.000000
   15       21.264527     21.823748   0.000000   0.000000
   16       22.209437     22.741788   0.000000   0.000000
   17       25.151595     25.553189   0.000000   0.000000
   18       26.629340     27.028493   0.000000   0.000000
   19       28.718515     28.907674   0.000000   0.000000
   20       28.899332     29.364618   0.000000   0.000000
   21       32.632014     32.991818   0.000000   0.000000
   22       34.178999     34.635309   0.000000   0.000000
   23       37.033288     37.524062   0.000000   0.000000
   24       37.233084     37.676344   0.000000   0.000000
   25       40.470029     40.913519   0.000000   0.000000
   26       42.568470     42.936523   0.000000   0.000000
   27       43.789858     44.169315   0.000000   0.000000
   28       45.118255     45.340032   0.000000   0.000000
   29       46.007245     46.363456   0.000000   0.000000
   30       48.009988     48.789704   0.000000   0.000000
   31       50.705740     51.374727   0.000000   0.000000
   32       51.885594     52.544056   0.000000   0.000000
 
  0.1250000E+00 -0.1250000E+00  0.1250000E+00  0.3125000E-01
    1       -1.795240     -1.666141   1.000000   1.000000
    2        1.230332      3.013383   1.000000   1.000000
    3        1.230333      3.013383   1.000000   1.000000
    4        3.062296      4.877006   1.000000   1.003054
    5        3.062296      4.877006   1.000000   1.003054
    6        3.833645      5.738045   1.000000  -0.007096
    7        4.361206      6.245711   1.000000  -0.000000
    8        4.361206      7.009950   1.000000  -0.000000
    9        4.388322      7.009950   1.000000  -0.000000
   10        5.354475      7.432391   0.400481  -0.000000
   11        5.354475      7.432391   0.400481  -0.000000
   12       13.950313     14.594445   0.000000   0.000000
   13       13.950313     14.594445   0.000000   0.000000
   14       15.058537     15.600901   0.000000   0.000000
   15       23.511047     24.069736   0.000000   0.000000
   16       23.511047     24.069736   0.000000   0.000000
   17       26.596444     26.761487   0.000000   0.000000
   18       26.596444     26.761487   0.000000   0.000000
   19       28.300202     29.274812   0.000000   0.000000
   20       30.299375     30.844650   0.000000   0.000000
   21       31.148106     31.095950   0.000000   0.000000
   22       35.948227     36.260281   0.000000   0.000000
   23       35.948227     36.260282   0.000000   0.000000
   24       36.972792     37.517989   0.000000   0.000000
   25       36.972792     37.517989   0.000000   0.000000
   26       40.354169     40.685525   0.000000   0.000000
   27       42.246081     42.942124   0.000000   0.000000
   28       44.138192     44.762564   0.000000   0.000000
   29       44.138192     44.762564   0.000000   0.000000
   30       47.535651     47.933347   0.000000   0.000000
   31       49.414126     49.982718   0.000000   0.000000
   32       49.414126     49.982718   0.000000   0.000000
 
  0.3750000E+00 -0.1250000E+00  0.1250000E+00  0.3125000E-01
    1        0.198334      0.480624   1.000000   1.000000
    2        1.672133      2.886510   1.000000   1.000000
    3        1.977762      3.862235   1.000000   1.000000
    4        2.783686      4.605653   1.000000   1.000002
    5        2.992519      4.695073   1.000000   1.000033
    6        3.348146      5.122480   1.000000   1.028912
    7        3.955085      6.272225   1.000000  -0.000000
    8        4.288291      6.302294   1.000000  -0.000000
    9        4.628400      6.694659   1.000004  -0.000000
   10        4.960008      7.323462   1.012450  -0.000000
   11        5.201157      7.498766   0.940423  -0.000000
   12        8.118255      9.566383  -0.000000  -0.000000
   13       17.019958     17.800855   0.000000   0.000000
   14       17.621691     18.257287   0.000000   0.000000
   15       21.264527     21.823748   0.000000   0.000000
   16       22.209437     22.741788   0.000000   0.000000
   17       25.151595     25.553189   0.000000   0.000000
   18       26.629340     27.028493   0.000000   0.000000
   19       28.718515     28.907674   0.000000   0.000000
   20       28.899332     29.364618   0.000000   0.000000
   21       32.632014     32.991818   0.000000   0.000000
   22       34.178999     34.635309   0.000000   0.000000
   23       37.033288     37.524062   0.000000   0.000000
   24       37.233084     37.676344   0.000000   0.000000
   25       40.470029     40.913519   0.000000   0.000000
   26       42.568470     42.936523   0.000000   0.000000
   27       43.789858     44.169315   0.000000   0.000000
   28       45.118256     45.340032   0.000000   0.000000
   29       46.007245     46.363456   0.000000   0.000000
   30       48.009988     48.789704   0.000000   0.000000
   31       50.705740     51.374727   0.000000   0.000000
   32       51.885595     52.544056   0.000000   0.000000
 
 -0.3750000E+00 -0.1250000E+00  0.1250000E+00  0.3125000E-01
    1        0.198334      0.480624   1.000000   1.000000
    2        1.672133      2.886510   1.000000   1.000000
    3        1.977762      3.862235   1.000000   1.000000
    4        2.783686      4.605653   1.000000   1.000002
    5        2.992519      4.695074   1.000000   1.000033
    6        3.348147      5.122480   1.000000   1.028912
    7        3.955085      6.272226   1.000000  -0.000000
    8        4.288291      6.302294   1.000000  -0.000000
    9        4.628400      6.694659   1.000004  -0.000000
   10        4.960008      7.323462   1.012450  -0.000000
   11        5.201157      7.498766   0.940423  -0.000000
   12        8.118255      9.566383  -0.000000  -0.000000
   13       17.019958     17.800855   0.000000   0.000000
   14       17.621691     18.257287   0.000000   0.000000
   15       21.264527     21.823748   0.000000   0.000000
   16       22.209437     22.741788   0.000000   0.000000
   17       25.151595     25.553189   0.000000   0.000000
   18       26.629340     27.028493   0.000000   0.000000
   19       28.718515     28.907674   0.000000   0.000000
   20       28.899332     29.364618   0.000000   0.000000
   21       32.632014     32.991818   0.000000   0.000000
   22       34.178999     34.635309   0.000000   0.000000
   23       37.033288     37.524062   0.000000   0.000000
   24       37.233084     37.676344   0.000000   0.000000
   25       40.470029     40.913519   0.000000   0.000000
   26       42.568470     42.936523   0.000000   0.000000
   27       43.789858     44.169315   0.000000   0.000000
   28       45.118255     45.340032   0.000000   0.000000
   29       46.007245     46.363456   0.000000   0.000000
   30       48.009988     48.789704   0.000000   0.000000
   31       50.705740     51.374727   0.000000   0.000000
   32       51.885594     52.544056   0.000000   0.000000
 
 -0.1250000E+00 -0.1250000E+00  0.1250000E+00  0.3125000E-01
    1       -1.795240     -1.666141   1.000000   1.000000
    2        1.230332      3.013383   1.000000   1.000000
    3        1.230333      3.013383   1.000000   1.000000
    4        3.062296      4.877006   1.000000   1.003054
    5        3.062296      4.877006   1.000000   1.003054
    6        3.833645      5.738045   1.000000  -0.007096
    7        4.361206      6.245710   1.000000  -0.000000
    8        4.361206      7.009950   1.000000  -0.000000
    9        4.388322      7.009950   1.000000  -0.000000
   10        5.354475      7.432391   0.400481  -0.000000
   11        5.354475      7.432391   0.400481  -0.000000
   12       13.950313     14.594445   0.000000   0.000000
   13       13.950313     14.594445   0.000000   0.000000
   14       15.058537     15.600900   0.000000   0.000000
   15       23.511047     24.069736   0.000000   0.000000
   16       23.511047     24.069737   0.000000   0.000000