       N       E                     dE             d eps       ncg     rms          rms(c)
DAV:   1    -0.450995951048E+01   -0.45100E+01   -0.79718E+03  4096   0.574E+02
DAV:   2    -0.185066544960E+02   -0.13997E+02   -0.13797E+02  5664   0.454E+01
DAV:   3    -0.185228733444E+02   -0.16219E-01   -0.16208E-01  4512   0.181E+00
DAV:   4    -0.185228841654E+02   -0.10821E-04   -0.10821E-04  7104   0.286E-02
DAV:   5    -0.185228841648E+02    0.61846E-09   -0.90869E-10  4576   0.627E-05    0.156E+01
DAV:   6    -0.163399926320E+02    0.21829E+01   -0.33198E+01  5120   0.346E+01    0.962E+00
DAV:   7    -0.164381900980E+02   -0.98197E-01   -0.24531E+00  4608   0.836E+00    0.455E+00
DAV:   8    -0.165067196501E+02   -0.68530E-01   -0.17556E-01  6144   0.156E+00    0.237E+00
DAV:   9    -0.164961357226E+02    0.10584E-01   -0.10727E-02  5504   0.372E-01    0.129E+00
DAV:  10    -0.164930381828E+02    0.30975E-02   -0.32034E-02  5120   0.659E-01    0.736E-01
DAV:  11    -0.164966974200E+02   -0.36592E-02   -0.80792E-03  5248   0.337E-01    0.170E-01
DAV:  12    -0.164968814718E+02   -0.18405E-03   -0.19357E-04  4480   0.560E-02    0.486E-02
DAV:  13    -0.164968842385E+02   -0.27666E-05   -0.31133E-05  3968   0.331E-02
   1 F= -.16496884E+02 E0= -.16493170E+02  d E =-.164969E+02  mag=     4.2309
