       N       E                     dE             d eps       ncg     rms          rms(c)
DAV:   1    -0.118157447019E+02   -0.11816E+02   -0.63386E+03  4384   0.416E+02
DAV:   2    -0.185106522569E+02   -0.66949E+01   -0.64440E+01  5312   0.303E+01
DAV:   3    -0.185192343541E+02   -0.85821E-02   -0.85776E-02  4928   0.112E+00
DAV:   4    -0.185192406236E+02   -0.62695E-05   -0.62689E-05  6848   0.170E-02
DAV:   5    -0.185192406243E+02   -0.68485E-09   -0.16353E-09  5056   0.507E-05    0.153E+01
DAV:   6    -0.163504840339E+02    0.21688E+01   -0.32701E+01  5248   0.324E+01    0.953E+00
DAV:   7    -0.164575542729E+02   -0.10707E+00   -0.23766E+00  4608   0.771E+00    0.453E+00
DAV:   8    -0.165247628750E+02   -0.67209E-01   -0.18246E-01  6016   0.151E+00    0.241E+00
DAV:   9    -0.165148357350E+02    0.99271E-02   -0.91138E-03  5632   0.330E-01    0.131E+00
DAV:  10    -0.165116746533E+02    0.31611E-02   -0.32434E-02  5248   0.611E-01    0.745E-01
DAV:  11    -0.165154649960E+02   -0.37903E-02   -0.82858E-03  5632   0.320E-01    0.178E-01
DAV:  12    -0.165156671740E+02   -0.20218E-03   -0.20354E-04  5120   0.534E-02    0.490E-02
DAV:  13    -0.165156704098E+02   -0.32358E-05   -0.34153E-05  2944   0.326E-02
   1 F= -.16515670E+02 E0= -.16511952E+02  d E =-.165157E+02  mag=     4.2313
