       N       E                     dE             d eps       ncg     rms          rms(c)
DAV:   1     0.172530529612E+01    0.17253E+01   -0.95093E+03  4096   0.722E+02
DAV:   2    -0.185007269373E+02   -0.20226E+02   -0.19992E+02  5696   0.552E+01
DAV:   3    -0.185233862315E+02   -0.22659E-01   -0.22650E-01  4384   0.230E+00
DAV:   4    -0.185234046522E+02   -0.18421E-04   -0.18420E-04  7296   0.410E-02
DAV:   5    -0.185234046555E+02   -0.32667E-08   -0.26271E-08  4544   0.168E-04    0.156E+01
DAV:   6    -0.163512909129E+02    0.21721E+01   -0.33220E+01  5120   0.350E+01    0.962E+00
DAV:   7    -0.164383137958E+02   -0.87023E-01   -0.24524E+00  4608   0.848E+00    0.455E+00
DAV:   8    -0.165078077462E+02   -0.69494E-01   -0.17451E-01  6144   0.156E+00    0.236E+00
DAV:   9    -0.164963927805E+02    0.11415E-01   -0.11114E-02  5504   0.387E-01    0.129E+00
DAV:  10    -0.164931280831E+02    0.32647E-02   -0.32191E-02  5120   0.650E-01    0.737E-01
DAV:  11    -0.164966934725E+02   -0.35654E-02   -0.81582E-03  5632   0.335E-01    0.174E-01
DAV:  12    -0.164968838036E+02   -0.19033E-03   -0.19518E-04  4480   0.547E-02    0.506E-02
DAV:  13    -0.164968887211E+02   -0.49175E-05   -0.38809E-05  2912   0.376E-02
   1 F= -.16496889E+02 E0= -.16493176E+02  d E =-.164969E+02  mag=     4.2308
