       N       E                     dE             d eps       ncg     rms          rms(c)
DAV:   1    -0.203225331370E+01   -0.20323E+01   -0.86528E+03  4096   0.636E+02
DAV:   2    -0.185006472061E+02   -0.16468E+02   -0.16287E+02  5568   0.492E+01
DAV:   3    -0.185233578225E+02   -0.22711E-01   -0.22704E-01  4384   0.221E+00
DAV:   4    -0.185233828454E+02   -0.25023E-04   -0.25023E-04  7168   0.447E-02
DAV:   5    -0.185233828453E+02    0.10164E-09   -0.19994E-09  4544   0.940E-05    0.156E+01
DAV:   6    -0.163520745663E+02    0.21713E+01   -0.33202E+01  5120   0.347E+01    0.962E+00
DAV:   7    -0.164393234402E+02   -0.87249E-01   -0.24495E+00  4608   0.838E+00    0.455E+00
DAV:   8    -0.165087233531E+02   -0.69400E-01   -0.17453E-01  6144   0.155E+00    0.237E+00
DAV:   9    -0.164973254644E+02    0.11398E-01   -0.11044E-02  5504   0.381E-01    0.129E+00
DAV:  10    -0.164940789453E+02    0.32465E-02   -0.32152E-02  5120   0.643E-01    0.736E-01
DAV:  11    -0.164976307340E+02   -0.35518E-02   -0.81249E-03  5632   0.332E-01    0.174E-01
DAV:  12    -0.164978204825E+02   -0.18975E-03   -0.19415E-04  4480   0.538E-02    0.504E-02
DAV:  13    -0.164978238553E+02   -0.33728E-05   -0.23305E-05  2816   0.280E-02
   1 F= -.16497824E+02 E0= -.16494111E+02  d E =-.164978E+02  mag=     4.2305
