       N       E                     dE             d eps       ncg     rms          rms(c)
DAV:   1    -0.918769293693E+01   -0.91877E+01   -0.68926E+03  4192   0.479E+02
DAV:   2    -0.185091923947E+02   -0.93215E+01   -0.91078E+01  5504   0.367E+01
DAV:   3    -0.185204318913E+02   -0.11239E-01   -0.11237E-01  4736   0.135E+00
DAV:   4    -0.185204415904E+02   -0.96992E-05   -0.96997E-05  6976   0.226E-02
DAV:   5    -0.185204415906E+02   -0.20032E-09   -0.31483E-10  4800   0.354E-05    0.155E+01
DAV:   6    -0.163475655475E+02    0.21729E+01   -0.33006E+01  5248   0.341E+01    0.964E+00
DAV:   7    -0.164476740793E+02   -0.10011E+00   -0.24336E+00  4608   0.820E+00    0.457E+00
DAV:   8    -0.165158651730E+02   -0.68191E-01   -0.17835E-01  6144   0.155E+00    0.240E+00
DAV:   9    -0.165054296543E+02    0.10436E-01   -0.10256E-02  5504   0.359E-01    0.130E+00
DAV:  10    -0.165024265408E+02    0.30031E-02   -0.32099E-02  5248   0.640E-01    0.733E-01
DAV:  11    -0.165060684361E+02   -0.36419E-02   -0.79928E-03  5632   0.328E-01    0.172E-01
DAV:  12    -0.165062541237E+02   -0.18569E-03   -0.19190E-04  4608   0.544E-02    0.490E-02
DAV:  13    -0.165062573464E+02   -0.32227E-05   -0.36888E-05  2944   0.357E-02
   1 F= -.16506257E+02 E0= -.16502545E+02  d E =-.165063E+02  mag=     4.2311
