       N       E                     dE             d eps       ncg     rms          rms(c)
DAV:   1    -0.682069401036E+01   -0.68207E+01   -0.74924E+03  4096   0.535E+02
DAV:   2    -0.185040149055E+02   -0.11683E+02   -0.11523E+02  5472   0.417E+01
DAV:   3    -0.185212894137E+02   -0.17275E-01   -0.17263E-01  4960   0.179E+00
DAV:   4    -0.185212992507E+02   -0.98370E-05   -0.98371E-05  6912   0.223E-02
DAV:   5    -0.185212992522E+02   -0.14547E-08   -0.77916E-10  5056   0.515E-05    0.155E+01
DAV:   6    -0.163400599240E+02    0.21812E+01   -0.33161E+01  5120   0.346E+01    0.963E+00
DAV:   7    -0.164386211134E+02   -0.98561E-01   -0.24498E+00  4608   0.834E+00    0.456E+00
DAV:   8    -0.165072352060E+02   -0.68614E-01   -0.17620E-01  6144   0.156E+00    0.238E+00
DAV:   9    -0.164966731340E+02    0.10562E-01   -0.10650E-02  5504   0.369E-01    0.129E+00
DAV:  10    -0.164935849035E+02    0.30882E-02   -0.32068E-02  5248   0.655E-01    0.737E-01
DAV:  11    -0.164972556382E+02   -0.36707E-02   -0.80840E-03  5632   0.336E-01    0.171E-01
DAV:  12    -0.164974412373E+02   -0.18560E-03   -0.19300E-04  4480   0.554E-02    0.489E-02
DAV:  13    -0.164974434224E+02   -0.21851E-05   -0.26273E-05  3200   0.300E-02
   1 F= -.16497443E+02 E0= -.16493731E+02  d E =-.164974E+02  mag=     4.2307
