 vasp.5.4.1 24Jun15 (build May 02 2016 14:41:14) complex                        
  
 executed on           IFC91_ompi date 2025.11.12  12:27:06
 running on   32 total cores
 distrk:  each k-point on   32 cores,    1 groups
 distr:  one band on NCORES_PER_BAND=   1 cores,   32 groups


--------------------------------------------------------------------------------------------------------


 INCAR:
 POTCAR:    PAW_PBE Fe 06Sep2000                  

 ----------------------------------------------------------------------------- 
|                                                                             |
|           W    W    AA    RRRRR   N    N  II  N    N   GGGG   !!!           |
|           W    W   A  A   R    R  NN   N  II  NN   N  G    G  !!!           |
|           W    W  A    A  R    R  N N  N  II  N N  N  G       !!!           |
|           W WW W  AAAAAA  RRRRR   N  N N  II  N  N N  G  GGG   !            |
|           WW  WW  A    A  R   R   N   NN  II  N   NN  G    G                |
|           W    W  A    A  R    R  N    N  II  N    N   GGGG   !!!           |
|                                                                             |
|      For optimal performance we recommend to set                            |
|        NCORE= 4 - approx SQRT( number of cores)                             |
|      NCORE specifies how many cores store one orbital (NPAR=cpu/NCORE).     |
|      This setting can  greatly improve the performance of VASP for DFT.     |
|      The default, NPAR=number of cores might be grossly inefficient         |
|      on modern multi-core architectures or massively parallel machines.     |
|      Do your own testing !!!!                                               |
|      Unfortunately you need to use the default for GW and RPA calculations. |
|      (for HF NCORE is supported but not extensively tested yet)             |
|                                                                             |
 ----------------------------------------------------------------------------- 

 POTCAR:    PAW_PBE Fe 06Sep2000                  
   VRHFIN =Fe:  d7 s1                                                           
   LEXCH  = PE                                                                  
   EATOM  =   594.3153 eV,   43.6809 Ry                                         
                                                                                
   TITEL  = PAW_PBE Fe 06Sep2000                                                
   LULTRA =        F    use ultrasoft PP ?                                      
   IUNSCR =        1    unscreen: 0-lin 1-nonlin 2-no                           
   RPACOR =    2.000    partial core radius                                     
   POMASS =   55.847; ZVAL   =    8.000    mass and valenz                      
   RCORE  =    2.300    outmost cutoff radius                                   
   RWIGS  =    2.460; RWIGS  =    1.302    wigner-seitz radius (au A)           
   ENMAX  =  267.882; ENMIN  =  200.911 eV                                      
   RCLOC  =    1.701    cutoff for local pot                                    
   LCOR   =        T    correct aug charges                                     
   LPAW   =        T    paw PP                                                  
   EAUG   =  511.368                                                            
   DEXC   =    0.000                                                            
   RMAX   =    2.356    core radius for proj-oper                               
   RAUG   =    1.300    factor for augmentation sphere                          
   RDEP   =    2.442    radius for radial grids                                 
   RDEPT  =    1.890    core radius for aug-charge                              
                                                                                
   Atomic configuration                                                         
    9 entries                                                                   
     n  l   j            E        occ.                                          
     1  0  0.50     -6993.8440   2.0000                                         
     2  0  0.50      -814.6047   2.0000                                         
     2  1  1.50      -693.3689   6.0000                                         
     3  0  0.50       -89.4732   2.0000                                         
     3  1  1.50       -55.6373   6.0000                                         
     3  2  2.50        -3.8151   7.0000                                         
     4  0  0.50        -4.2551   1.0000                                         
     4  1  1.50        -3.4015   0.0000                                         
     4  3  2.50        -1.3606   0.0000                                         
   Description                                                                  
     l       E           TYP  RCUT    TYP  RCUT                                 
     2     -3.8151135     23  2.300                                             
     2     -5.1756961     23  2.300                                             
     0     -4.2550963     23  2.300                                             
     0      7.2035603     23  2.300                                             
     1     -2.7211652     23  2.300                                             
     1     18.4316424     23  2.300                                             
  local pseudopotential read in
  partial core-charges read in
  partial kinetic energy density read in
  atomic valenz-charges read in
  non local Contribution for L=           2  read in
    real space projection operators read in
  non local Contribution for L=           2  read in
    real space projection operators read in
  non local Contribution for L=           0  read in
    real space projection operators read in
  non local Contribution for L=           0  read in
    real space projection operators read in
  non local Contribution for L=           1  read in
    real space projection operators read in
  non local Contribution for L=           1  read in
    real space projection operators read in
    PAW grid and wavefunctions read in
 
   number of l-projection  operators is LMAX  =           6
   number of lm-projection operators is LMMAX =          18
 
  PAW_PBE Fe 06Sep2000                  :
 energy of atom  1       EATOM= -594.3153
 kinetic energy error for atom=    0.0026 (will be added to EATOM!!)
 
 
 POSCAR: BCC Fe                                  
  positions in cartesian coordinates
  No initial velocities read in
 exchange correlation table for  LEXCH =        8
   RHO(1)=    0.500       N(1)  =     2000
   RHO(2)=  100.500       N(2)  =     4000
 


--------------------------------------------------------------------------------------------------------


 ion  position               nearest neighbor table
   1  0.000  0.000  0.000-   2 2.48   2 2.48   2 2.48   2 2.48   2 2.48   2 2.48   2 2.48   2 2.48

   2  0.500  0.500  0.500-   1 2.48   1 2.48   1 2.48   1 2.48   1 2.48   1 2.48   1 2.48   1 2.48

 

IMPORTANT INFORMATION: All symmetrisations will be switched off!
NOSYMM: (Re-)initialisation of all symmetry stuff for point group C_1.

 
 
 KPOINTS: Automatic mesh                          

Automatic generation of k-mesh.
Space group operators:
 irot       det(A)        alpha          n_x          n_y          n_z        tau_x        tau_y        tau_z
    1     1.000000     0.000001     1.000000     0.000000     0.000000     0.000000     0.000000     0.000000
 
 Subroutine IBZKPT returns following result:
 ===========================================
 
 Found     32 irreducible k-points:
 
 Following reciprocal coordinates:
            Coordinates               Weight
  0.125000  0.125000  0.125000      2.000000
  0.375000  0.125000  0.125000      2.000000
 -0.375000  0.125000  0.125000      2.000000
 -0.125000  0.125000  0.125000      2.000000
  0.125000  0.375000  0.125000      2.000000
  0.375000  0.375000  0.125000      2.000000
 -0.375000  0.375000  0.125000      2.000000
 -0.125000  0.375000  0.125000      2.000000
  0.125000 -0.375000  0.125000      2.000000
  0.375000 -0.375000  0.125000      2.000000
 -0.375000 -0.375000  0.125000      2.000000
 -0.125000 -0.375000  0.125000      2.000000
  0.125000 -0.125000  0.125000      2.000000
  0.375000 -0.125000  0.125000      2.000000
 -0.375000 -0.125000  0.125000      2.000000
 -0.125000 -0.125000  0.125000      2.000000
  0.125000  0.125000  0.375000      2.000000
  0.375000  0.125000  0.375000      2.000000
 -0.375000  0.125000  0.375000      2.000000
 -0.125000  0.125000  0.375000      2.000000
  0.125000  0.375000  0.375000      2.000000
  0.375000  0.375000  0.375000      2.000000
 -0.375000  0.375000  0.375000      2.000000
 -0.125000  0.375000  0.375000      2.000000
  0.125000 -0.375000  0.375000      2.000000
  0.375000 -0.375000  0.375000      2.000000
 -0.375000 -0.375000  0.375000      2.000000
 -0.125000 -0.375000  0.375000      2.000000
  0.125000 -0.125000  0.375000      2.000000
  0.375000 -0.125000  0.375000      2.000000
 -0.375000 -0.125000  0.375000      2.000000
 -0.125000 -0.125000  0.375000      2.000000
 
 Following cartesian coordinates:
            Coordinates               Weight
  0.125000  0.125000  0.125000      2.000000
  0.375000  0.125000  0.125000      2.000000
 -0.375000  0.125000  0.125000      2.000000
 -0.125000  0.125000  0.125000      2.000000
  0.125000  0.375000  0.125000      2.000000
  0.375000  0.375000  0.125000      2.000000
 -0.375000  0.375000  0.125000      2.000000
 -0.125000  0.375000  0.125000      2.000000
  0.125000 -0.375000  0.125000      2.000000
  0.375000 -0.375000  0.125000      2.000000
 -0.375000 -0.375000  0.125000      2.000000
 -0.125000 -0.375000  0.125000      2.000000
  0.125000 -0.125000  0.125000      2.000000
  0.375000 -0.125000  0.125000      2.000000
 -0.375000 -0.125000  0.125000      2.000000
 -0.125000 -0.125000  0.125000      2.000000
  0.125000  0.125000  0.375000      2.000000
  0.375000  0.125000  0.375000      2.000000
 -0.375000  0.125000  0.375000      2.000000
 -0.125000  0.125000  0.375000      2.000000
  0.125000  0.375000  0.375000      2.000000
  0.375000  0.375000  0.375000      2.000000
 -0.375000  0.375000  0.375000      2.000000
 -0.125000  0.375000  0.375000      2.000000
  0.125000 -0.375000  0.375000      2.000000
  0.375000 -0.375000  0.375000      2.000000
 -0.375000 -0.375000  0.375000      2.000000
 -0.125000 -0.375000  0.375000      2.000000
  0.125000 -0.125000  0.375000      2.000000
  0.375000 -0.125000  0.375000      2.000000
 -0.375000 -0.125000  0.375000      2.000000
 -0.125000 -0.125000  0.375000      2.000000
 


--------------------------------------------------------------------------------------------------------




 Dimension of arrays:
   k-points           NKPTS =     32   k-points in BZ     NKDIM =     32   number of bands    NBANDS=     32
   number of dos      NEDOS =    301   number of ions     NIONS =      2
   non local maximal  LDIM  =      6   non local SUM 2l+1 LMDIM =     18
   total plane-waves  NPLWV =   4096
   max r-space proj   IRMAX =      1   max aug-charges    IRDMAX=   6436
   dimension x,y,z NGX =    16 NGY =   16 NGZ =   16
   dimension x,y,z NGXF=    32 NGYF=   32 NGZF=   32
   support grid    NGXF=    32 NGYF=   32 NGZF=   32
   ions per type =               2
 NGX,Y,Z   is equivalent  to a cutoff of   9.30,  9.30,  9.30 a.u.
 NGXF,Y,Z  is equivalent  to a cutoff of  18.60, 18.60, 18.60 a.u.


 I would recommend the setting:
   dimension x,y,z NGX =    16 NGY =   16 NGZ =   16
 SYSTEM =  Fe Bulk                                 
 POSCAR =  BCC Fe                                  

 Startparameter for this run:
   NWRITE =      2    write-flag & timer
   PREC   = normal    normal or accurate (medium, high low for compatibility)
   ISTART =      0    job   : 0-new  1-cont  2-samecut
   ICHARG =      2    charge: 1-file 2-atom 10-const
   ISPIN  =      2    spin polarized calculation?
   LNONCOLLINEAR =      F non collinear calculations
   LSORBIT =      F    spin-orbit coupling
   INIWAV =      1    electr: 0-lowe 1-rand  2-diag
   LASPH  =      F    aspherical Exc in radial PAW
   METAGGA=      F    non-selfconsistent MetaGGA calc.

 Electronic Relaxation 1
   ENCUT  =  500.0 eV  36.75 Ry    6.06 a.u.   5.21  5.21  5.21*2*pi/ulx,y,z
   ENINI  =  500.0     initial cutoff
   ENAUG  =  511.4 eV  augmentation charge cutoff
   NELM   =     60;   NELMIN=  6; NELMDL= -5     # of ELM steps 
   EDIFF  = 0.1E-04   stopping-criterion for ELM
   LREAL  =      F    real-space projection
   NLSPLINE    = F    spline interpolate recip. space projectors
   LCOMPAT=      F    compatible to vasp.4.4
   GGA_COMPAT  = T    GGA compatible to vasp.4.4-vasp.4.6
   LMAXPAW     = -100 max onsite density
   LMAXMIX     =    2 max onsite mixed and CHGCAR
   VOSKOWN=      0    Vosko Wilk Nusair interpolation
   ROPT   =    0.00000
 Ionic relaxation
   EDIFFG = -.1E-01   stopping-criterion for IOM
   NSW    =     20    number of steps for IOM
   NBLOCK =      1;   KBLOCK =     20    inner block; outer block 
   IBRION =      2    ionic relax: 0-MD 1-quasi-New 2-CG
   NFREE  =      1    steps in history (QN), initial steepest desc. (CG)
   ISIF   =      2    stress and relaxation
   IWAVPR =     11    prediction:  0-non 1-charg 2-wave 3-comb
   ISYM   =      0    0-nonsym 1-usesym 2-fastsym
   LCORR  =      T    Harris-Foulkes like correction to forces

   POTIM  = 0.5000    time-step for ionic-motion
   TEIN   =    0.0    initial temperature
   TEBEG  =    0.0;   TEEND  =   0.0 temperature during run
   SMASS  =  -3.00    Nose mass-parameter (am)
   estimated Nose-frequenzy (Omega)   =  0.10E-29 period in steps =****** mass=  -0.187E-27a.u.
   SCALEE = 1.0000    scale energy and forces
   NPACO  =    256;   APACO  = 16.0  distance and # of slots for P.C.
   PSTRESS=    0.0 pullay stress

  Mass of Ions in am
   POMASS =  55.85
  Ionic Valenz
   ZVAL   =   8.00
  Atomic Wigner-Seitz radii
   RWIGS  =  -1.00
  virtual crystal weights 
   VCA    =   1.00
   NELECT =      16.0000    total number of electrons
   NUPDOWN=      -1.0000    fix difference up-down

 DOS related values:
   EMIN   =  10.00;   EMAX   =-10.00  energy-range for DOS
   EFERMI =   0.00
   ISMEAR =     1;   SIGMA  =   0.20  broadening in eV -4-tet -1-fermi 0-gaus

 Electronic relaxation 2 (details)
   IALGO  =     38    algorithm
   LDIAG  =      T    sub-space diagonalisation (order eigenvalues)
   LSUBROT=      F    optimize rotation matrix (better conditioning)
   TURBO    =      0    0=normal 1=particle mesh
   IRESTART =      0    0=no restart 2=restart with 2 vectors
   NREBOOT  =      0    no. of reboots
   NMIN     =      0    reboot dimension
   EREF     =   0.00    reference energy to select bands
   IMIX   =      4    mixing-type and parameters
     AMIX     =   0.40;   BMIX     =  1.00
     AMIX_MAG =   1.60;   BMIX_MAG =  1.00
     AMIN     =   0.10
     WC   =   100.;   INIMIX=   1;  MIXPRE=   1;  MAXMIX=  40

 Intra band minimization:
   WEIMIN = 0.0010     energy-eigenvalue tresh-hold
   EBREAK =  0.78E-07  absolut break condition
   DEPER  =   0.30     relativ break condition  

   TIME   =   0.40     timestep for ELM

  volume/ion in A,a.u.               =      11.70        78.93
  Fermi-wavevector in a.u.,A,eV,Ry     =   1.442388  2.725718 28.306695  2.080483
  Thomas-Fermi vector in A             =   2.560914
 
 Write flags
   LWAVE  =      F    write WAVECAR
   LCHARG =      F    write CHGCAR
   LVTOT  =      F    write LOCPOT, total local potential
   LVHAR  =      F    write LOCPOT, Hartree potential only
   LELF   =      F    write electronic localiz. function (ELF)
   LORBIT =      0    0 simple, 1 ext, 2 COOP (PROOUT)


 Dipole corrections
   LMONO  =      F    monopole corrections only (constant potential shift)
   LDIPOL =      F    correct potential (dipole corrections)
   IDIPOL =      0    1-x, 2-y, 3-z, 4-all directions 
   EPSILON=  1.0000000 bulk dielectric constant

 Exchange correlation treatment:
   GGA     =    PE    GGA type
   LEXCH   =     8    internal setting for exchange type
   VOSKOWN=      0    Vosko Wilk Nusair interpolation
   LHFCALC =     F    Hartree Fock is set to
   LHFONE  =     F    Hartree Fock one center treatment
   AEXX    =    0.0000 exact exchange contribution

 Linear response parameters
   LEPSILON=     F    determine dielectric tensor
   LRPA    =     F    only Hartree local field effects (RPA)
   LNABLA  =     F    use nabla operator in PAW spheres
   LVEL    =     F    velocity operator in full k-point grid
   LINTERFAST=   F  fast interpolation
   KINTER  =     0    interpolate to denser k-point grid
   CSHIFT  =0.1000    complex shift for real part using Kramers Kronig
   OMEGAMAX=  -1.0    maximum frequency
   DEG_THRESHOLD= 0.2000000E-02 threshold for treating states as degnerate
   RTIME   =    0.100 relaxation time in fs

 Orbital magnetization related:
   ORBITALMAG=     F  switch on orbital magnetization
   LCHIMAG   =     F  perturbation theory with respect to B field
   DQ        =  0.001000  dq finite difference perturbation B field



--------------------------------------------------------------------------------------------------------


 conjugate gradient relaxation of ions
 charge density and potential will be updated during run
 spin polarized calculation
 Variant of blocked Davidson
 Davidson routine will perform the subspace rotation
 perform sub-space diagonalisation
    after iterative eigenvector-optimisation
 modified Broyden-mixing scheme, WC =      100.0
 initial mixing is a Kerker type mixing with AMIX =  0.4000 and BMIX =      1.0000
 Hartree-type preconditioning will be used
 using additional bands           24
 reciprocal scheme for non local part
 use partial core corrections
 calculate Harris-corrections to forces 
   (improved forces if not selfconsistent)
 use gradient corrections 
 use of overlap-Matrix (Vanderbilt PP)
 Methfessel and Paxton  Order N= 1 SIGMA  =   0.20


--------------------------------------------------------------------------------------------------------


  energy-cutoff  :      500.00
  volume of cell :       23.39
      direct lattice vectors                 reciprocal lattice vectors
     2.860000000  0.000000000  0.000000000     0.349650350  0.000000000  0.000000000
     0.000000000  2.860000000  0.000000000     0.000000000  0.349650350  0.000000000
     0.000000000  0.000000000  2.860000000     0.000000000  0.000000000  0.349650350

  length of vectors
     2.860000000  2.860000000  2.860000000     0.349650350  0.349650350  0.349650350


 
 k-points in units of 2pi/SCALE and weight: Automatic mesh                          
   0.12500000  0.12500000  0.12500000       0.031
   0.37500000  0.12500000  0.12500000       0.031
  -0.37500000  0.12500000  0.12500000       0.031
  -0.12500000  0.12500000  0.12500000       0.031
   0.12500000  0.37500000  0.12500000       0.031
   0.37500000  0.37500000  0.12500000       0.031
  -0.37500000  0.37500000  0.12500000       0.031
  -0.12500000  0.37500000  0.12500000       0.031
   0.12500000 -0.37500000  0.12500000       0.031
   0.37500000 -0.37500000  0.12500000       0.031
  -0.37500000 -0.37500000  0.12500000       0.031
  -0.12500000 -0.37500000  0.12500000       0.031
   0.12500000 -0.12500000  0.12500000       0.031
   0.37500000 -0.12500000  0.12500000       0.031
  -0.37500000 -0.12500000  0.12500000       0.031
  -0.12500000 -0.12500000  0.12500000       0.031
   0.12500000  0.12500000  0.37500000       0.031
   0.37500000  0.12500000  0.37500000       0.031
  -0.37500000  0.12500000  0.37500000       0.031
  -0.12500000  0.12500000  0.37500000       0.031
   0.12500000  0.37500000  0.37500000       0.031
   0.37500000  0.37500000  0.37500000       0.031
  -0.37500000  0.37500000  0.37500000       0.031
  -0.12500000  0.37500000  0.37500000       0.031
   0.12500000 -0.37500000  0.37500000       0.031
   0.37500000 -0.37500000  0.37500000       0.031
  -0.37500000 -0.37500000  0.37500000       0.031
  -0.12500000 -0.37500000  0.37500000       0.031
   0.12500000 -0.12500000  0.37500000       0.031
   0.37500000 -0.12500000  0.37500000       0.031
  -0.37500000 -0.12500000  0.37500000       0.031
  -0.12500000 -0.12500000  0.37500000       0.031
 
 k-points in reciprocal lattice and weights: Automatic mesh                          
   0.12500000  0.12500000  0.12500000       0.031
   0.37500000  0.12500000  0.12500000       0.031
  -0.37500000  0.12500000  0.12500000       0.031
  -0.12500000  0.12500000  0.12500000       0.031
   0.12500000  0.37500000  0.12500000       0.031
   0.37500000  0.37500000  0.12500000       0.031
  -0.37500000  0.37500000  0.12500000       0.031
  -0.12500000  0.37500000  0.12500000       0.031
   0.12500000 -0.37500000  0.12500000       0.031
   0.37500000 -0.37500000  0.12500000       0.031
  -0.37500000 -0.37500000  0.12500000       0.031
  -0.12500000 -0.37500000  0.12500000       0.031
   0.12500000 -0.12500000  0.12500000       0.031
   0.37500000 -0.12500000  0.12500000       0.031
  -0.37500000 -0.12500000  0.12500000       0.031
  -0.12500000 -0.12500000  0.12500000       0.031
   0.12500000  0.12500000  0.37500000       0.031
   0.37500000  0.12500000  0.37500000       0.031
  -0.37500000  0.12500000  0.37500000       0.031
  -0.12500000  0.12500000  0.37500000       0.031
   0.12500000  0.37500000  0.37500000       0.031
   0.37500000  0.37500000  0.37500000       0.031
  -0.37500000  0.37500000  0.37500000       0.031
  -0.12500000  0.37500000  0.37500000       0.031
   0.12500000 -0.37500000  0.37500000       0.031
   0.37500000 -0.37500000  0.37500000       0.031
  -0.37500000 -0.37500000  0.37500000       0.031
  -0.12500000 -0.37500000  0.37500000       0.031
   0.12500000 -0.12500000  0.37500000       0.031
   0.37500000 -0.12500000  0.37500000       0.031
  -0.37500000 -0.12500000  0.37500000       0.031
  -0.12500000 -0.12500000  0.37500000       0.031
 
 position of ions in fractional coordinates (direct lattice) 
   0.00000000  0.00000000  0.00000000
   0.50000000  0.50000000  0.50000000
 
 position of ions in cartesian coordinates  (Angst):
   0.00000000  0.00000000  0.00000000
   1.43000000  1.43000000  1.43000000
 


--------------------------------------------------------------------------------------------------------


 k-point  1 :   0.1250 0.1250 0.1250  plane waves:     591
 k-point  2 :   0.3750 0.1250 0.1250  plane waves:     599
 k-point  3 :  -0.3750 0.1250 0.1250  plane waves:     599
 k-point  4 :  -0.1250 0.1250 0.1250  plane waves:     591
 k-point  5 :   0.1250 0.3750 0.1250  plane waves:     599
 k-point  6 :   0.3750 0.3750 0.1250  plane waves:     595
 k-point  7 :  -0.3750 0.3750 0.1250  plane waves:     595
 k-point  8 :  -0.1250 0.3750 0.1250  plane waves:     599
 k-point  9 :   0.1250-0.3750 0.1250  plane waves:     599
 k-point 10 :   0.3750-0.3750 0.1250  plane waves:     595
 k-point 11 :  -0.3750-0.3750 0.1250  plane waves:     595
 k-point 12 :  -0.1250-0.3750 0.1250  plane waves:     599
 k-point 13 :   0.1250-0.1250 0.1250  plane waves:     591
 k-point 14 :   0.3750-0.1250 0.1250  plane waves:     599
 k-point 15 :  -0.3750-0.1250 0.1250  plane waves:     599
 k-point 16 :  -0.1250-0.1250 0.1250  plane waves:     591
 k-point 17 :   0.1250 0.1250 0.3750  plane waves:     599
 k-point 18 :   0.3750 0.1250 0.3750  plane waves:     595
 k-point 19 :  -0.3750 0.1250 0.3750  plane waves:     595
 k-point 20 :  -0.1250 0.1250 0.3750  plane waves:     599
 k-point 21 :   0.1250 0.3750 0.3750  plane waves:     595
 k-point 22 :   0.3750 0.3750 0.3750  plane waves:     606
 k-point 23 :  -0.3750 0.3750 0.3750  plane waves:     606
 k-point 24 :  -0.1250 0.3750 0.3750  plane waves:     595
 k-point 25 :   0.1250-0.3750 0.3750  plane waves:     595
 k-point 26 :   0.3750-0.3750 0.3750  plane waves:     606
 k-point 27 :  -0.3750-0.3750 0.3750  plane waves:     606
 k-point 28 :  -0.1250-0.3750 0.3750  plane waves:     595
 k-point 29 :   0.1250-0.1250 0.3750  plane waves:     599
 k-point 30 :   0.3750-0.1250 0.3750  plane waves:     595
 k-point 31 :  -0.3750-0.1250 0.3750  plane waves:     595
 k-point 32 :  -0.1250-0.1250 0.3750  plane waves:     599

 maximum and minimum number of plane-waves per node :       606      591

 maximum number of plane-waves:       606
 maximum index in each direction: 
   IXMAX=    5   IYMAX=    5   IZMAX=    5
   IXMIN=   -5   IYMIN=   -5   IZMIN=   -5

 WARNING: aliasing errors must be expected set NGX to  22 to avoid them
 WARNING: aliasing errors must be expected set NGY to  22 to avoid them
 WARNING: aliasing errors must be expected set NGZ to  22 to avoid them
 aliasing errors are usually negligible using standard VASP settings
 and one can safely disregard these warnings

 serial   3D FFT for wavefunctions
 parallel 3D FFT for charge:
    minimum data exchange during FFTs selected (reduces bandwidth)


 total amount of memory used by VASP on root node    34046. kBytes
========================================================================

   base      :      30000. kBytes
   nonl-proj :       2821. kBytes
   fftplans  :         62. kBytes
   grid      :        413. kBytes
   one-center:         62. kBytes
   wavefun   :        688. kBytes
 
     INWAV:  cpu time    0.0010: real time    0.0001
 Broyden mixing: mesh for mixing (old mesh)
   NGX = 11   NGY = 11   NGZ = 11
  (NGX  = 32   NGY  = 32   NGZ  = 32)
  gives a total of   1331 points

 initial charge density was supplied:
 charge density of overlapping atoms calculated
 number of electron      16.0000000 magnetization       2.0000000
 keeping initial charge density in first step


--------------------------------------------------------------------------------------------------------


 Maximum index for augmentation-charges          401 (set IRDMAX)


--------------------------------------------------------------------------------------------------------


 First call to EWALD:  gamma=   0.620
 Maximum number of real-space cells 3x 3x 3
 Maximum number of reciprocal cells 3x 3x 3

 FEWALD executed in parallel
    FEWALD:  cpu time    0.0020: real time    0.0019


----------------------------------------- Iteration    1(   1)  ---------------------------------------


    POTLOK:  cpu time    0.0040: real time    0.0048
    SETDIJ:  cpu time    0.0070: real time    0.0070
     EDDAV:  cpu time    0.7539: real time    0.7544
       DOS:  cpu time    0.0010: real time    0.0010
    --------------------------------------------
      LOOP:  cpu time    0.7719: real time    0.7858

 eigenvalue-minimisations  :  4096
 total energy-change (2. order) :-0.2032253E+01  (-0.8652791E+03)
 number of electron      16.0000000 magnetization       2.0000000
 augmentation part       16.0000000 magnetization       2.0000000

 Free energy of the ion-electron system (eV)
  ---------------------------------------------------
  alpha Z        PSCENC =       118.17524546
  Ewald energy   TEWEN  =     -1172.68111701
  -Hartree energ DENC   =      -227.55063011
  -exchange      EXHF   =         0.00000000
  -V(xc)+E(xc)   XCENC  =         7.90834731
  PAW double counting   =      1109.45345578    -1124.86183816
  entropy T*S    EENTRO =         0.00248145
  eigenvalues    EBANDS =        98.89646108
  atomic energy  EATOM  =      1188.62534088
  Solvation  Ediel_sol  =         0.00000000
  ---------------------------------------------------
  free energy    TOTEN  =        -2.03225331 eV

  energy without entropy =       -2.03473477  energy(sigma->0) =       -2.03308046


--------------------------------------------------------------------------------------------------------




----------------------------------------- Iteration    1(   2)  ---------------------------------------


     EDDAV:  cpu time    1.2388: real time    1.2397
       DOS:  cpu time    0.0010: real time    0.0010
    --------------------------------------------
      LOOP:  cpu time    1.2408: real time    1.2533

 eigenvalue-minimisations  :  5568
 total energy-change (2. order) :-0.1646839E+02  (-0.1628724E+02)
 number of electron      16.0000000 magnetization       2.0000000
 augmentation part       16.0000000 magnetization       2.0000000

 Free energy of the ion-electron system (eV)
  ---------------------------------------------------
  alpha Z        PSCENC =       118.17524546
  Ewald energy   TEWEN  =     -1172.68111701
  -Hartree energ DENC   =      -227.55063011
  -exchange      EXHF   =         0.00000000
  -V(xc)+E(xc)   XCENC  =         7.90834731
  PAW double counting   =      1109.45345578    -1124.86183816
  entropy T*S    EENTRO =         0.00670728
  eigenvalues    EBANDS =        82.42384136
  atomic energy  EATOM  =      1188.62534088
  Solvation  Ediel_sol  =         0.00000000
  ---------------------------------------------------
  free energy    TOTEN  =       -18.50064721 eV

  energy without entropy =      -18.50735449  energy(sigma->0) =      -18.50288297


--------------------------------------------------------------------------------------------------------




----------------------------------------- Iteration    1(   3)  ---------------------------------------


     EDDAV:  cpu time    0.8779: real time    0.8775
       DOS:  cpu time    0.0010: real time    0.0010
    --------------------------------------------
      LOOP:  cpu time    0.8799: real time    0.8917

 eigenvalue-minimisations  :  4384
 total energy-change (2. order) :-0.2271062E-01  (-0.2270371E-01)
 number of electron      16.0000000 magnetization       2.0000000
 augmentation part       16.0000000 magnetization       2.0000000

 Free energy of the ion-electron system (eV)
  ---------------------------------------------------
  alpha Z        PSCENC =       118.17524546
  Ewald energy   TEWEN  =     -1172.68111701
  -Hartree energ DENC   =      -227.55063011
  -exchange      EXHF   =         0.00000000
  -V(xc)+E(xc)   XCENC  =         7.90834731
  PAW double counting   =      1109.45345578    -1124.86183816
  entropy T*S    EENTRO =         0.00641733
  eigenvalues    EBANDS =        82.40142069
  atomic energy  EATOM  =      1188.62534088
  Solvation  Ediel_sol  =         0.00000000
  ---------------------------------------------------
  free energy    TOTEN  =       -18.52335782 eV

  energy without entropy =      -18.52977516  energy(sigma->0) =      -18.52549693


--------------------------------------------------------------------------------------------------------




----------------------------------------- Iteration    1(   4)  ---------------------------------------


     EDDAV:  cpu time    1.9557: real time    1.9565
       DOS:  cpu time    0.0010: real time    0.0009
    --------------------------------------------
      LOOP:  cpu time    1.9567: real time    1.9620

 eigenvalue-minimisations  :  7168
 total energy-change (2. order) :-0.2502290E-04  (-0.2502291E-04)
 number of electron      16.0000000 magnetization       2.0000000
 augmentation part       16.0000000 magnetization       2.0000000

 Free energy of the ion-electron system (eV)
  ---------------------------------------------------
  alpha Z        PSCENC =       118.17524546
  Ewald energy   TEWEN  =     -1172.68111701
  -Hartree energ DENC   =      -227.55063011
  -exchange      EXHF   =         0.00000000
  -V(xc)+E(xc)   XCENC  =         7.90834731
  PAW double counting   =      1109.45345578    -1124.86183816
  entropy T*S    EENTRO =         0.00641721
  eigenvalues    EBANDS =        82.40139579
  atomic energy  EATOM  =      1188.62534088
  Solvation  Ediel_sol  =         0.00000000
  ---------------------------------------------------
  free energy    TOTEN  =       -18.52338285 eV

  energy without entropy =      -18.52980006  energy(sigma->0) =      -18.52552192


--------------------------------------------------------------------------------------------------------




----------------------------------------- Iteration    1(   5)  ---------------------------------------


     EDDAV:  cpu time    0.9379: real time    0.9648
       DOS:  cpu time    0.0010: real time    0.0010
    CHARGE:  cpu time    0.0060: real time    0.0056
    MIXING:  cpu time    0.0010: real time    0.0004
    --------------------------------------------
      LOOP:  cpu time    0.9469: real time    0.9847

 eigenvalue-minimisations  :  4544
 total energy-change (2. order) : 0.1016360E-09  (-0.1999386E-09)
 number of electron      16.0000067 magnetization       2.2533258
 augmentation part        7.1438499 magnetization       1.6474967

 Broyden mixing:
  rms(total) = 0.15552E+01    rms(broyden)= 0.15552E+01
  rms(prec ) = 0.37346E+01
  weight for this iteration     100.00

 Free energy of the ion-electron system (eV)
  ---------------------------------------------------
  alpha Z        PSCENC =       118.17524546
  Ewald energy   TEWEN  =     -1172.68111701
  -Hartree energ DENC   =      -227.55063011
  -exchange      EXHF   =         0.00000000
  -V(xc)+E(xc)   XCENC  =         7.90834731
  PAW double counting   =      1109.45345578    -1124.86183816
  entropy T*S    EENTRO =         0.00641721
  eigenvalues    EBANDS =        82.40139579
  atomic energy  EATOM  =      1188.62534088
  Solvation  Ediel_sol  =         0.00000000
  ---------------------------------------------------
  free energy    TOTEN  =       -18.52338285 eV

  energy without entropy =      -18.52980006  energy(sigma->0) =      -18.52552192


--------------------------------------------------------------------------------------------------------




----------------------------------------- Iteration    1(   6)  ---------------------------------------


    POTLOK:  cpu time    0.0030: real time    0.0037
    SETDIJ:  cpu time    0.0070: real time    0.0070
     EDDAV:  cpu time    1.0938: real time    1.0932
       DOS:  cpu time    0.0010: real time    0.0009
    CHARGE:  cpu time    0.0050: real time    0.0055
    MIXING:  cpu time    0.0010: real time    0.0003
    --------------------------------------------
      LOOP:  cpu time    1.1108: real time    1.1153

 eigenvalue-minimisations  :  5120
 total energy-change (2. order) : 0.2171308E+01  (-0.3320157E+01)
 number of electron      16.0000089 magnetization       3.5412047
 augmentation part        8.6305300 magnetization       2.8484539

 Broyden mixing:
  rms(total) = 0.96236E+00    rms(broyden)= 0.96230E+00
  rms(prec ) = 0.12148E+01
  weight for this iteration     100.00

 eigenvalues of (default mixing * dielectric matrix)
  average eigenvalue GAMMA=   0.4833
  0.4833

 Free energy of the ion-electron system (eV)
  ---------------------------------------------------
  alpha Z        PSCENC =       118.17524546
  Ewald energy   TEWEN  =     -1172.68111701
  -Hartree energ DENC   =      -191.97213177
  -exchange      EXHF   =         0.00000000
  -V(xc)+E(xc)   XCENC  =         6.53442178
  PAW double counting   =      1193.87874237    -1204.25606206
  entropy T*S    EENTRO =        -0.02383365
  eigenvalues    EBANDS =        45.36731943
  atomic energy  EATOM  =      1188.62534088
  Solvation  Ediel_sol  =         0.00000000
  ---------------------------------------------------
  free energy    TOTEN  =       -16.35207457 eV

  energy without entropy =      -16.32824092  energy(sigma->0) =      -16.34413002


--------------------------------------------------------------------------------------------------------




----------------------------------------- Iteration    1(   7)  ---------------------------------------


    POTLOK:  cpu time    0.0030: real time    0.0037
    SETDIJ:  cpu time    0.0070: real time    0.0071
     EDDAV:  cpu time    0.9269: real time    0.9264
       DOS:  cpu time    0.0010: real time    0.0009
    CHARGE:  cpu time    0.0050: real time    0.0055
    MIXING:  cpu time    0.0000: real time    0.0003
    --------------------------------------------
      LOOP:  cpu time    0.9439: real time    0.9569

 eigenvalue-minimisations  :  4608
 total energy-change (2. order) :-0.8724887E-01  (-0.2449503E+00)
 number of electron      16.0000082 magnetization       4.3713822
 augmentation part        8.2815623 magnetization       3.6007274

 Broyden mixing:
  rms(total) = 0.45547E+00    rms(broyden)= 0.45546E+00
  rms(prec ) = 0.49472E+00
  weight for this iteration     100.00

 eigenvalues of (default mixing * dielectric matrix)
  average eigenvalue GAMMA=   0.8731
  1.0118  0.7344

 Free energy of the ion-electron system (eV)
  ---------------------------------------------------
  alpha Z        PSCENC =       118.17524546
  Ewald energy   TEWEN  =     -1172.68111701
  -Hartree energ DENC   =      -197.98240447
  -exchange      EXHF   =         0.00000000
  -V(xc)+E(xc)   XCENC  =         7.75007140
  PAW double counting   =      1260.26030968    -1274.39764192
  entropy T*S    EENTRO =        -0.02058663
  eigenvalues    EBANDS =        53.83145918
  atomic energy  EATOM  =      1188.62534088
  Solvation  Ediel_sol  =         0.00000000
  ---------------------------------------------------
  free energy    TOTEN  =       -16.43932344 eV

  energy without entropy =      -16.41873681  energy(sigma->0) =      -16.43246123


--------------------------------------------------------------------------------------------------------




----------------------------------------- Iteration    1(   8)  ---------------------------------------


    POTLOK:  cpu time    0.0030: real time    0.0037
    SETDIJ:  cpu time    0.0070: real time    0.0070
     EDDAV:  cpu time    1.4388: real time    1.4409
       DOS:  cpu time    0.0010: real time    0.0009
    CHARGE:  cpu time    0.0050: real time    0.0055
    MIXING:  cpu time    0.0000: real time    0.0003
    --------------------------------------------
      LOOP:  cpu time    1.4558: real time    1.4629

 eigenvalue-minimisations  :  6144
 total energy-change (2. order) :-0.6939991E-01  (-0.1745258E-01)
 number of electron      16.0000083 magnetization       4.4014909
 augmentation part        8.2730636 magnetization       3.6821823

 Broyden mixing:
  rms(total) = 0.23663E+00    rms(broyden)= 0.23663E+00
  rms(prec ) = 0.28014E+00
  weight for this iteration     100.00

 eigenvalues of (default mixing * dielectric matrix)
  average eigenvalue GAMMA=   0.9784
  1.6165  0.6594  0.6594

 Free energy of the ion-electron system (eV)
  ---------------------------------------------------
  alpha Z        PSCENC =       118.17524546
  Ewald energy   TEWEN  =     -1172.68111701
  -Hartree energ DENC   =      -196.59517782
  -exchange      EXHF   =         0.00000000
  -V(xc)+E(xc)   XCENC  =         8.47167766
  PAW double counting   =      1319.10463482    -1335.00032766
  entropy T*S    EENTRO =        -0.01240553
  eigenvalues    EBANDS =        53.40340585
  atomic energy  EATOM  =      1188.62534088
  Solvation  Ediel_sol  =         0.00000000
  ---------------------------------------------------
  free energy    TOTEN  =       -16.50872335 eV

  energy without entropy =      -16.49631783  energy(sigma->0) =      -16.50458818


--------------------------------------------------------------------------------------------------------




----------------------------------------- Iteration    1(   9)  ---------------------------------------


    POTLOK:  cpu time    0.0040: real time    0.0037
    SETDIJ:  cpu time    0.0070: real time    0.0070
     EDDAV:  cpu time    1.2218: real time    1.2217
       DOS:  cpu time    0.0010: real time    0.0009
    CHARGE:  cpu time    0.0050: real time    0.0055
    MIXING:  cpu time    0.0010: real time    0.0003
    --------------------------------------------
      LOOP:  cpu time    1.2408: real time    1.2522

 eigenvalue-minimisations  :  5504
 total energy-change (2. order) : 0.1139789E-01  (-0.1104372E-02)
 number of electron      16.0000083 magnetization       4.0804529
 augmentation part        8.2825405 magnetization       3.3661267

 Broyden mixing:
  rms(total) = 0.12886E+00    rms(broyden)= 0.12885E+00
  rms(prec ) = 0.15175E+00
  weight for this iteration     100.00

 eigenvalues of (default mixing * dielectric matrix)
  average eigenvalue GAMMA=   1.3219
  2.4455  1.4012  0.8109  0.6299

 Free energy of the ion-electron system (eV)
  ---------------------------------------------------
  alpha Z        PSCENC =       118.17524546
  Ewald energy   TEWEN  =     -1172.68111701
  -Hartree energ DENC   =      -195.32318676
  -exchange      EXHF   =         0.00000000
  -V(xc)+E(xc)   XCENC  =         8.52025645
  PAW double counting   =      1363.76511414    -1380.77788969
  entropy T*S    EENTRO =        -0.01516172
  eigenvalues    EBANDS =        53.21407279
  atomic energy  EATOM  =      1188.62534088
  Solvation  Ediel_sol  =         0.00000000
  ---------------------------------------------------
  free energy    TOTEN  =       -16.49732546 eV

  energy without entropy =      -16.48216374  energy(sigma->0) =      -16.49227156


--------------------------------------------------------------------------------------------------------




----------------------------------------- Iteration    1(  10)  ---------------------------------------


    POTLOK:  cpu time    0.0030: real time    0.0037
    SETDIJ:  cpu time    0.0070: real time    0.0070
     EDDAV:  cpu time    1.0928: real time    1.0925
       DOS:  cpu time    0.0010: real time    0.0009
    CHARGE:  cpu time    0.0050: real time    0.0055
    MIXING:  cpu time    0.0010: real time    0.0003
    --------------------------------------------
      LOOP:  cpu time    1.1098: real time    1.1230

 eigenvalue-minimisations  :  5120
 total energy-change (2. order) : 0.3246519E-02  (-0.3215181E-02)
 number of electron      16.0000083 magnetization       4.2706196
 augmentation part        8.2934842 magnetization       3.5368297

 Broyden mixing:
  rms(total) = 0.73601E-01    rms(broyden)= 0.73601E-01
  rms(prec ) = 0.73768E-01
  weight for this iteration     100.00

 eigenvalues of (default mixing * dielectric matrix)
  average eigenvalue GAMMA=   1.1837
  2.5206  1.0748  0.9552  0.7270  0.6408

 Free energy of the ion-electron system (eV)
  ---------------------------------------------------
  alpha Z        PSCENC =       118.17524546
  Ewald energy   TEWEN  =     -1172.68111701
  -Hartree energ DENC   =      -193.83716615
  -exchange      EXHF   =         0.00000000
  -V(xc)+E(xc)   XCENC  =         8.16659233
  PAW double counting   =      1414.67325929    -1432.70008202
  entropy T*S    EENTRO =        -0.01097678
  eigenvalues    EBANDS =        53.09482506
  atomic energy  EATOM  =      1188.62534088
  Solvation  Ediel_sol  =         0.00000000
  ---------------------------------------------------
  free energy    TOTEN  =       -16.49407895 eV

  energy without entropy =      -16.48310216  energy(sigma->0) =      -16.49042002


--------------------------------------------------------------------------------------------------------




----------------------------------------- Iteration    1(  11)  ---------------------------------------


    POTLOK:  cpu time    0.0030: real time    0.0037
    SETDIJ:  cpu time    0.0070: real time    0.0070
     EDDAV:  cpu time    1.2648: real time    1.2652
       DOS:  cpu time    0.0010: real time    0.0009
    CHARGE:  cpu time    0.0050: real time    0.0055
    MIXING:  cpu time    0.0010: real time    0.0003
    --------------------------------------------
      LOOP:  cpu time    1.2828: real time    1.2950

 eigenvalue-minimisations  :  5632
 total energy-change (2. order) :-0.3551789E-02  (-0.8124857E-03)
 number of electron      16.0000083 magnetization       4.2350465
 augmentation part        8.2925996 magnetization       3.5209434

 Broyden mixing:
  rms(total) = 0.17412E-01    rms(broyden)= 0.17412E-01
  rms(prec ) = 0.18068E-01
  weight for this iteration     100.00

 eigenvalues of (default mixing * dielectric matrix)
  average eigenvalue GAMMA=   1.1083
  2.3285  1.2763  1.0275  0.7079  0.7079  0.6014

 Free energy of the ion-electron system (eV)
  ---------------------------------------------------
  alpha Z        PSCENC =       118.17524546
  Ewald energy   TEWEN  =     -1172.68111701
  -Hartree energ DENC   =      -193.97584705
  -exchange      EXHF   =         0.00000000
  -V(xc)+E(xc)   XCENC  =         8.33819822
  PAW double counting   =      1408.62466978    -1426.53667416
  entropy T*S    EENTRO =        -0.01174101
  eigenvalues    EBANDS =        52.94429416
  atomic energy  EATOM  =      1188.62534088
  Solvation  Ediel_sol  =         0.00000000
  ---------------------------------------------------
  free energy    TOTEN  =       -16.49763073 eV

  energy without entropy =      -16.48588973  energy(sigma->0) =      -16.49371707


--------------------------------------------------------------------------------------------------------




----------------------------------------- Iteration    1(  12)  ---------------------------------------


    POTLOK:  cpu time    0.0030: real time    0.0037
    SETDIJ:  cpu time    0.0070: real time    0.0071
     EDDAV:  cpu time    0.8849: real time    0.8850
       DOS:  cpu time    0.0010: real time    0.0009
    CHARGE:  cpu time    0.0050: real time    0.0055
    MIXING:  cpu time    0.0010: real time    0.0004
    --------------------------------------------
      LOOP:  cpu time    0.9029: real time    0.9143

 eigenvalue-minimisations  :  4480
 total energy-change (2. order) :-0.1897485E-03  (-0.1941499E-04)
 number of electron      16.0000083 magnetization       4.2322900
 augmentation part        8.2935332 magnetization       3.5174427

 Broyden mixing:
  rms(total) = 0.50420E-02    rms(broyden)= 0.50418E-02
  rms(prec ) = 0.63153E-02
  weight for this iteration     100.00

 eigenvalues of (default mixing * dielectric matrix)
  average eigenvalue GAMMA=   1.0704
  2.3056  1.1591  1.1591  0.7742  0.7742  0.6405  0.6799

 Free energy of the ion-electron system (eV)
  ---------------------------------------------------
  alpha Z        PSCENC =       118.17524546
  Ewald energy   TEWEN  =     -1172.68111701
  -Hartree energ DENC   =      -193.99174811
  -exchange      EXHF   =         0.00000000
  -V(xc)+E(xc)   XCENC  =         8.30714749
  PAW double counting   =      1407.16163675    -1425.01715102
  entropy T*S    EENTRO =        -0.01117126
  eigenvalues    EBANDS =        52.93399633
  atomic energy  EATOM  =      1188.62534088
  Solvation  Ediel_sol  =         0.00000000
  ---------------------------------------------------
  free energy    TOTEN  =       -16.49782048 eV

  energy without entropy =      -16.48664923  energy(sigma->0) =      -16.49409673


--------------------------------------------------------------------------------------------------------




----------------------------------------- Iteration    1(  13)  ---------------------------------------


    POTLOK:  cpu time    0.0030: real time    0.0037
    SETDIJ:  cpu time    0.0070: real time    0.0070
     EDDAV:  cpu time    0.5259: real time    0.5255
       DOS:  cpu time    0.0010: real time    0.0009
    --------------------------------------------
      LOOP:  cpu time    0.5379: real time    0.5418

 eigenvalue-minimisations  :  2816
 total energy-change (2. order) :-0.3372831E-05  (-0.2330452E-05)
 number of electron      16.0000083 magnetization       4.2322900
 augmentation part        8.2935332 magnetization       3.5174427

 Free energy of the ion-electron system (eV)
  ---------------------------------------------------
  alpha Z        PSCENC =       118.17524546
  Ewald energy   TEWEN  =     -1172.68111701
  -Hartree energ DENC   =      -193.97711524
  -exchange      EXHF   =         0.00000000
  -V(xc)+E(xc)   XCENC  =         8.30593972
  PAW double counting   =      1407.45653376    -1425.30697508
  entropy T*S    EENTRO =        -0.01113885
  eigenvalues    EBANDS =        52.91546251
  atomic energy  EATOM  =      1188.62534088
  Solvation  Ediel_sol  =         0.00000000
  ---------------------------------------------------
  free energy    TOTEN  =       -16.49782386 eV

  energy without entropy =      -16.48668500  energy(sigma->0) =      -16.49411091


--------------------------------------------------------------------------------------------------------




 average (electrostatic) potential at core
  the test charge radii are     1.0103
  (the norm of the test charge is              1.0000)
       1 -43.6593       2 -43.6613
 
 
 
 E-fermi :   5.3308     XC(G=0): -12.9600     alpha+bet :-13.2519


 spin component 1

 k-point     1 :       0.1250    0.1250    0.1250
  band No.  band energies     occupation 
      1      -1.7950      1.00000
      2       1.2304      1.00000
      3       1.2304      1.00000
      4       3.0623      1.00000
      5       3.0623      1.00000
      6       3.8336      1.00000
      7       4.3613      1.00000
      8       4.3613      1.00000
      9       4.3883      1.00000
     10       5.3545      0.40059
     11       5.3545      0.40059
     12      13.9504      0.00000
     13      13.9504      0.00000
     14      15.0588      0.00000
     15      23.5115      0.00000
     16      23.5115      0.00000
     17      26.5969      0.00000
     18      26.5969      0.00000
     19      28.3007      0.00000
     20      30.3000      0.00000
     21      31.1481      0.00000
     22      35.9485      0.00000
     23      35.9485      0.00000
     24      36.9739      0.00000
     25      36.9739      0.00000
     26      40.3552      0.00000
     27      42.2477      0.00000
     28      44.1398      0.00000
     29      44.1398      0.00000
     30      47.5358      0.00000
     31      49.4159      0.00000
     32      49.4159      0.00000

 k-point     2 :       0.3750    0.1250    0.1250
  band No.  band energies     occupation 
      1       0.1985      1.00000
      2       1.6723      1.00000
      3       1.9778      1.00000
      4       2.7837      1.00000
      5       2.9925      1.00000
      6       3.3482      1.00000
      7       3.9551      1.00000
      8       4.2883      1.00000
      9       4.6284      1.00000
     10       4.9601      1.01246
     11       5.2012      0.94043
     12       8.1184     -0.00000
     13      17.0202      0.00000
     14      17.6220      0.00000
     15      21.2648      0.00000
     16      22.2097      0.00000
     17      25.1521      0.00000
     18      26.6297      0.00000
     19      28.7190      0.00000
     20      28.8996      0.00000
     21      32.6326      0.00000
     22      34.1798      0.00000
     23      37.0344      0.00000
     24      37.2335      0.00000
     25      40.4714      0.00000
     26      42.5695      0.00000
     27      43.7911      0.00000
     28      45.1191      0.00000
     29      46.0080      0.00000
     30      48.0113      0.00000
     31      50.7075      0.00000
     32      51.8870      0.00000

 k-point     3 :      -0.3750    0.1250    0.1250
  band No.  band energies     occupation 
      1       0.1985      1.00000
      2       1.6723      1.00000
      3       1.9778      1.00000
      4       2.7837      1.00000
      5       2.9925      1.00000
      6       3.3482      1.00000
      7       3.9551      1.00000
      8       4.2883      1.00000
      9       4.6284      1.00000
     10       4.9601      1.01246
     11       5.2012      0.94043
     12       8.1184     -0.00000
     13      17.0202      0.00000
     14      17.6220      0.00000
     15      21.2648      0.00000
     16      22.2097      0.00000
     17      25.1521      0.00000
     18      26.6297      0.00000
     19      28.7190      0.00000
     20      28.8996      0.00000
     21      32.6326      0.00000
     22      34.1798      0.00000
     23      37.0344      0.00000
     24      37.2335      0.00000
     25      40.4714      0.00000
     26      42.5695      0.00000
     27      43.7911      0.00000
     28      45.1191      0.00000
     29      46.0080      0.00000
     30      48.0113      0.00000
     31      50.7075      0.00000
     32      51.8870      0.00000

 k-point     4 :      -0.1250    0.1250    0.1250
  band No.  band energies     occupation 
      1      -1.7950      1.00000
      2       1.2304      1.00000
      3       1.2304      1.00000
      4       3.0623      1.00000
      5       3.0623      1.00000
      6       3.8336      1.00000
      7       4.3613      1.00000
      8       4.3613      1.00000
      9       4.3883      1.00000
     10       5.3545      0.40059
     11       5.3545      0.40059
     12      13.9504      0.00000
     13      13.9504      0.00000
     14      15.0588      0.00000
     15      23.5115      0.00000
     16      23.5115      0.00000
     17      26.5969      0.00000
     18      26.5969      0.00000
     19      28.3007      0.00000
     20      30.3000      0.00000
     21      31.1481      0.00000
     22      35.9485      0.00000
     23      35.9485      0.00000
     24      36.9739      0.00000
     25      36.9739      0.00000
     26      40.3552      0.00000
     27      42.2477      0.00000
     28      44.1398      0.00000
     29      44.1398      0.00000
     30      47.5358      0.00000
     31      49.4159      0.00000
     32      49.4159      0.00000

 k-point     5 :       0.1250    0.3750    0.1250
  band No.  band energies     occupation 
      1       0.1985      1.00000
      2       1.6723      1.00000
      3       1.9778      1.00000
      4       2.7837      1.00000
      5       2.9925      1.00000
      6       3.3482      1.00000
      7       3.9551      1.00000
      8       4.2883      1.00000
      9       4.6284      1.00000
     10       4.9601      1.01246
     11       5.2012      0.94043
     12       8.1184     -0.00000
     13      17.0202      0.00000
     14      17.6220      0.00000
     15      21.2648      0.00000
     16      22.2097      0.00000
     17      25.1521      0.00000
     18      26.6297      0.00000
     19      28.7190      0.00000
     20      28.8996      0.00000
     21      32.6326      0.00000
     22      34.1798      0.00000
     23      37.0344      0.00000
     24      37.2335      0.00000
     25      40.4714      0.00000
     26      42.5695      0.00000
     27      43.7911      0.00000
     28      45.1191      0.00000
     29      46.0080      0.00000
     30      48.0113      0.00000
     31      50.7075      0.00000
     32      51.8870      0.00000

 k-point     6 :       0.3750    0.3750    0.1250
  band No.  band energies     occupation 
      1       0.9087      1.00000
      2       1.2791      1.00000
      3       2.3339      1.00000
      4       2.4922      1.00000
      5       3.2003      1.00000
      6       3.6208      1.00000
      7       4.3459      1.00000
      8       4.4503      1.00000
      9       4.5701      1.00000
     10       5.3503      0.41796
     11       6.2015     -0.00000
     12       8.6682     -0.00000
     13      12.7745      0.00000
     14      15.7513      0.00000
     15      19.3248      0.00000
     16      22.5820      0.00000
     17      24.1995      0.00000
     18      25.7050      0.00000
     19      30.0028      0.00000
     20      30.8731      0.00000
     21      34.2789      0.00000
     22      34.6730      0.00000
     23      37.0383      0.00000
     24      39.8876      0.00000
     25      39.9485      0.00000
     26      41.0376      0.00000
     27      47.1929      0.00000
     28      49.1215      0.00000
     29      49.9225      0.00000
     30      50.5413      0.00000
     31      51.8739      0.00000
     32      52.8761      0.00000

 k-point     7 :      -0.3750    0.3750    0.1250
  band No.  band energies     occupation 
      1       0.9087      1.00000
      2       1.2791      1.00000
      3       2.3339      1.00000
      4       2.4922      1.00000
      5       3.2003      1.00000
      6       3.6209      1.00000
      7       4.3459      1.00000
      8       4.4503      1.00000
      9       4.5701      1.00000
     10       5.3503      0.41796
     11       6.2015     -0.00000
     12       8.6682     -0.00000
     13      12.7745      0.00000
     14      15.7513      0.00000
     15      19.3248      0.00000
     16      22.5820      0.00000
     17      24.1995      0.00000
     18      25.7050      0.00000
     19      30.0028      0.00000
     20      30.8731      0.00000
     21      34.2789      0.00000
     22      34.6730      0.00000
     23      37.0383      0.00000
     24      39.8876      0.00000
     25      39.9485      0.00000
     26      41.0376      0.00000
     27      47.1929      0.00000
     28      49.1215      0.00000
     29      49.9225      0.00000
     30      50.5413      0.00000
     31      51.8739      0.00000
     32      52.8761      0.00000

 k-point     8 :      -0.1250    0.3750    0.1250
  band No.  band energies     occupation 
      1       0.1985      1.00000
      2       1.6723      1.00000
      3       1.9778      1.00000
      4       2.7837      1.00000
      5       2.9925      1.00000
      6       3.3482      1.00000
      7       3.9551      1.00000
      8       4.2883      1.00000
      9       4.6284      1.00000
     10       4.9601      1.01246
     11       5.2012      0.94043
     12       8.1184     -0.00000
     13      17.0202      0.00000
     14      17.6220      0.00000
     15      21.2648      0.00000
     16      22.2097      0.00000
     17      25.1521      0.00000
     18      26.6297      0.00000
     19      28.7190      0.00000
     20      28.8996      0.00000
     21      32.6326      0.00000
     22      34.1798      0.00000
     23      37.0344      0.00000
     24      37.2335      0.00000
     25      40.4714      0.00000
     26      42.5695      0.00000
     27      43.7911      0.00000
     28      45.1191      0.00000
     29      46.0080      0.00000
     30      48.0113      0.00000
     31      50.7075      0.00000
     32      51.8870      0.00000

 k-point     9 :       0.1250   -0.3750    0.1250
  band No.  band energies     occupation 
      1       0.1985      1.00000
      2       1.6723      1.00000
      3       1.9778      1.00000
      4       2.7837      1.00000
      5       2.9925      1.00000
      6       3.3482      1.00000
      7       3.9551      1.00000
      8       4.2883      1.00000
      9       4.6284      1.00000
     10       4.9601      1.01246
     11       5.2012      0.94043
     12       8.1184     -0.00000
     13      17.0202      0.00000
     14      17.6220      0.00000
     15      21.2648      0.00000
     16      22.2097      0.00000
     17      25.1521      0.00000
     18      26.6297      0.00000
     19      28.7190      0.00000
     20      28.8996      0.00000
     21      32.6326      0.00000
     22      34.1798      0.00000
     23      37.0344      0.00000
     24      37.2335      0.00000
     25      40.4714      0.00000
     26      42.5695      0.00000
     27      43.7911      0.00000
     28      45.1191      0.00000
     29      46.0080      0.00000
     30      48.0113      0.00000
     31      50.7075      0.00000
     32      51.8870      0.00000

 k-point    10 :       0.3750   -0.3750    0.1250
  band No.  band energies     occupation 
      1       0.9087      1.00000
      2       1.2791      1.00000
      3       2.3339      1.00000
      4       2.4922      1.00000
      5       3.2003      1.00000
      6       3.6208      1.00000
      7       4.3459      1.00000
      8       4.4503      1.00000
      9       4.5701      1.00000
     10       5.3503      0.41796
     11       6.2015     -0.00000
     12       8.6682     -0.00000
     13      12.7745      0.00000
     14      15.7513      0.00000
     15      19.3248      0.00000
     16      22.5820      0.00000
     17      24.1995      0.00000
     18      25.7050      0.00000
     19      30.0028      0.00000
     20      30.8731      0.00000
     21      34.2789      0.00000
     22      34.6730      0.00000
     23      37.0383      0.00000
     24      39.8876      0.00000
     25      39.9485      0.00000
     26      41.0376      0.00000
     27      47.1929      0.00000
     28      49.1215      0.00000
     29      49.9225      0.00000
     30      50.5413      0.00000
     31      51.8739      0.00000
     32      52.8761      0.00000

 k-point    11 :      -0.3750   -0.3750    0.1250
  band No.  band energies     occupation 
      1       0.9087      1.00000
      2       1.2791      1.00000
      3       2.3339      1.00000
      4       2.4922      1.00000
      5       3.2003      1.00000
      6       3.6209      1.00000
      7       4.3459      1.00000
      8       4.4503      1.00000
      9       4.5701      1.00000
     10       5.3503      0.41796
     11       6.2015     -0.00000
     12       8.6682     -0.00000
     13      12.7745      0.00000
     14      15.7513      0.00000
     15      19.3248      0.00000
     16      22.5820      0.00000
     17      24.1995      0.00000
     18      25.7050      0.00000
     19      30.0028      0.00000
     20      30.8731      0.00000
     21      34.2789      0.00000
     22      34.6730      0.00000
     23      37.0383      0.00000
     24      39.8876      0.00000
     25      39.9485      0.00000
     26      41.0376      0.00000
     27      47.1929      0.00000
     28      49.1215      0.00000
     29      49.9225      0.00000
     30      50.5413      0.00000
     31      51.8739      0.00000
     32      52.8761      0.00000

 k-point    12 :      -0.1250   -0.3750    0.1250
  band No.  band energies     occupation 
      1       0.1985      1.00000
      2       1.6723      1.00000
      3       1.9778      1.00000
      4       2.7837      1.00000
      5       2.9925      1.00000
      6       3.3482      1.00000
      7       3.9551      1.00000
      8       4.2883      1.00000
      9       4.6284      1.00000
     10       4.9601      1.01246
     11       5.2012      0.94043
     12       8.1184     -0.00000
     13      17.0202      0.00000
     14      17.6220      0.00000
     15      21.2648      0.00000
     16      22.2097      0.00000
     17      25.1521      0.00000
     18      26.6297      0.00000
     19      28.7190      0.00000
     20      28.8996      0.00000
     21      32.6326      0.00000
     22      34.1798      0.00000
     23      37.0344      0.00000
     24      37.2335      0.00000
     25      40.4714      0.00000
     26      42.5695      0.00000
     27      43.7911      0.00000
     28      45.1191      0.00000
     29      46.0080      0.00000
     30      48.0113      0.00000
     31      50.7075      0.00000
     32      51.8870      0.00000

 k-point    13 :       0.1250   -0.1250    0.1250
  band No.  band energies     occupation 
      1      -1.7950      1.00000
      2       1.2304      1.00000
      3       1.2304      1.00000
      4       3.0623      1.00000
      5       3.0623      1.00000
      6       3.8336      1.00000
      7       4.3613      1.00000
      8       4.3613      1.00000
      9       4.3883      1.00000
     10       5.3545      0.40059
     11       5.3545      0.40059
     12      13.9504      0.00000
     13      13.9504      0.00000
     14      15.0588      0.00000
     15      23.5115      0.00000
     16      23.5115      0.00000
     17      26.5969      0.00000
     18      26.5969      0.00000
     19      28.3007      0.00000
     20      30.3000      0.00000
     21      31.1481      0.00000
     22      35.9485      0.00000
     23      35.9485      0.00000
     24      36.9739      0.00000
     25      36.9739      0.00000
     26      40.3552      0.00000
     27      42.2477      0.00000
     28      44.1398      0.00000
     29      44.1398      0.00000
     30      47.5358      0.00000
     31      49.4159      0.00000
     32      49.4159      0.00000

 k-point    14 :       0.3750   -0.1250    0.1250
  band No.  band energies     occupation 
      1       0.1985      1.00000
      2       1.6723      1.00000
      3       1.9778      1.00000
      4       2.7837      1.00000
      5       2.9925      1.00000
      6       3.3482      1.00000
      7       3.9551      1.00000
      8       4.2883      1.00000
      9       4.6284      1.00000
     10       4.9601      1.01246
     11       5.2012      0.94043
     12       8.1184     -0.00000
     13      17.0202      0.00000
     14      17.6220      0.00000
     15      21.2648      0.00000
     16      22.2097      0.00000
     17      25.1521      0.00000
     18      26.6297      0.00000
     19      28.7190      0.00000
     20      28.8996      0.00000
     21      32.6326      0.00000
     22      34.1798      0.00000
     23      37.0344      0.00000
     24      37.2335      0.00000
     25      40.4714      0.00000
     26      42.5695      0.00000
     27      43.7911      0.00000
     28      45.1191      0.00000
     29      46.0080      0.00000
     30      48.0113      0.00000
     31      50.7075      0.00000
     32      51.8870      0.00000

 k-point    15 :      -0.3750   -0.1250    0.1250
  band No.  band energies     occupation 
      1       0.1985      1.00000
      2       1.6723      1.00000
      3       1.9778      1.00000
      4       2.7837      1.00000
      5       2.9925      1.00000
      6       3.3482      1.00000
      7       3.9551      1.00000
      8       4.2883      1.00000
      9       4.6284      1.00000
     10       4.9601      1.01246
     11       5.2012      0.94043
     12       8.1184     -0.00000
     13      17.0202      0.00000
     14      17.6220      0.00000
     15      21.2648      0.00000
     16      22.2097      0.00000
     17      25.1521      0.00000
     18      26.6297      0.00000
     19      28.7190      0.00000
     20      28.8996      0.00000
     21      32.6326      0.00000
     22      34.1798      0.00000
     23      37.0344      0.00000
     24      37.2335      0.00000
     25      40.4714      0.00000
     26      42.5695      0.00000
     27      43.7911      0.00000
     28      45.1191      0.00000
     29      46.0080      0.00000
     30      48.0113      0.00000
     31      50.7075      0.00000
     32      51.8870      0.00000

 k-point    16 :      -0.1250   -0.1250    0.1250
  band No.  band energies     occupation 
      1      -1.7950      1.00000
      2       1.2304      1.00000
      3       1.2304      1.00000
      4       3.0623      1.00000
      5       3.0623      1.00000
      6       3.8336      1.00000
      7       4.3613      1.00000
      8       4.3613      1.00000
      9       4.3883      1.00000
     10       5.3545      0.40059
     11       5.3545      0.40059
     12      13.9504      0.00000
     13      13.9504      0.00000
     14      15.0588      0.00000
     15      23.5115      0.00000
     16      23.5115      0.00000
     17      26.5969      0.00000
     18      26.5969      0.00000
     19      28.3007      0.00000
     20      30.3000      0.00000
     21      31.1481      0.00000
     22      35.9485      0.00000
     23      35.9485      0.00000
     24      36.9739      0.00000
     25      36.9739      0.00000
     26      40.3552      0.00000
     27      42.2477      0.00000
     28      44.1398      0.00000
     29      44.1398      0.00000
     30      47.5358      0.00000
     31      49.4159      0.00000
     32      49.4159      0.00000

 k-point    17 :       0.1250    0.1250    0.3750
  band No.  band energies     occupation 
      1       0.1985      1.00000
      2       1.6723      1.00000
      3       1.9778      1.00000
      4       2.7837      1.00000
      5       2.9925      1.00000
      6       3.3482      1.00000
      7       3.9551      1.00000
      8       4.2883      1.00000
      9       4.6284      1.00000
     10       4.9601      1.01246
     11       5.2012      0.94043
     12       8.1184     -0.00000
     13      17.0202      0.00000
     14      17.6220      0.00000
     15      21.2648      0.00000
     16      22.2097      0.00000
     17      25.1521      0.00000
     18      26.6297      0.00000
     19      28.7190      0.00000
     20      28.8996      0.00000
     21      32.6326      0.00000
     22      34.1798      0.00000
     23      37.0344      0.00000
     24      37.2335      0.00000
     25      40.4714      0.00000
     26      42.5695      0.00000
     27      43.7911      0.00000
     28      45.1191      0.00000
     29      46.0080      0.00000
     30      48.0113      0.00000
     31      50.7075      0.00000
     32      51.8870      0.00000

 k-point    18 :       0.3750    0.1250    0.3750
  band No.  band energies     occupation 
      1       0.9087      1.00000
      2       1.2791      1.00000
      3       2.3339      1.00000
      4       2.4922      1.00000
      5       3.2003      1.00000
      6       3.6209      1.00000
      7       4.3459      1.00000
      8       4.4503      1.00000
      9       4.5701      1.00000
     10       5.3503      0.41796
     11       6.2015     -0.00000
     12       8.6682     -0.00000
     13      12.7745      0.00000
     14      15.7513      0.00000
     15      19.3248      0.00000
     16      22.5820      0.00000
     17      24.1995      0.00000
     18      25.7050      0.00000
     19      30.0028      0.00000
     20      30.8731      0.00000
     21      34.2789      0.00000
     22      34.6730      0.00000
     23      37.0383      0.00000
     24      39.8876      0.00000
     25      39.9485      0.00000
     26      41.0376      0.00000
     27      47.1929      0.00000
     28      49.1215      0.00000
     29      49.9225      0.00000
     30      50.5413      0.00000
     31      51.8739      0.00000
     32      52.8761      0.00000

 k-point    19 :      -0.3750    0.1250    0.3750
  band No.  band energies     occupation 
      1       0.9087      1.00000
      2       1.2791      1.00000
      3       2.3339      1.00000
      4       2.4922      1.00000
      5       3.2003      1.00000
      6       3.6208      1.00000
      7       4.3459      1.00000
      8       4.4503      1.00000
      9       4.5701      1.00000
     10       5.3503      0.41796
     11       6.2015     -0.00000
     12       8.6682     -0.00000
     13      12.7745      0.00000
     14      15.7513      0.00000
     15      19.3248      0.00000
     16      22.5820      0.00000
     17      24.1995      0.00000
     18      25.7050      0.00000
     19      30.0028      0.00000
     20      30.8731      0.00000
     21      34.2789      0.00000
     22      34.6730      0.00000
     23      37.0383      0.00000
     24      39.8876      0.00000
     25      39.9485      0.00000
     26      41.0376      0.00000
     27      47.1929      0.00000
     28      49.1215      0.00000
     29      49.9225      0.00000
     30      50.5413      0.00000
     31      51.8739      0.00000
     32      52.8761      0.00000

 k-point    20 :      -0.1250    0.1250    0.3750
  band No.  band energies     occupation 
      1       0.1985      1.00000
      2       1.6723      1.00000
      3       1.9778      1.00000
      4       2.7837      1.00000
      5       2.9925      1.00000
      6       3.3482      1.00000
      7       3.9551      1.00000
      8       4.2883      1.00000
      9       4.6284      1.00000
     10       4.9601      1.01246
     11       5.2012      0.94043
     12       8.1184     -0.00000
     13      17.0202      0.00000
     14      17.6220      0.00000
     15      21.2648      0.00000
     16      22.2097      0.00000
     17      25.1521      0.00000
     18      26.6297      0.00000
     19      28.7190      0.00000
     20      28.8996      0.00000
     21      32.6326      0.00000
     22      34.1798      0.00000
     23      37.0344      0.00000
     24      37.2335      0.00000
     25      40.4714      0.00000
     26      42.5695      0.00000
     27      43.7911      0.00000
     28      45.1191      0.00000
     29      46.0080      0.00000
     30      48.0113      0.00000
     31      50.7075      0.00000
     32      51.8870      0.00000

 k-point    21 :       0.1250    0.3750    0.3750
  band No.  band energies     occupation 
      1       0.9087      1.00000
      2       1.2791      1.00000
      3       2.3339      1.00000
      4       2.4922      1.00000
      5       3.2003      1.00000
      6       3.6208      1.00000
      7       4.3459      1.00000
      8       4.4503      1.00000
      9       4.5701      1.00000
     10       5.3503      0.41796
     11       6.2015     -0.00000
     12       8.6682     -0.00000
     13      12.7745      0.00000
     14      15.7513      0.00000
     15      19.3248      0.00000
     16      22.5820      0.00000
     17      24.1995      0.00000
     18      25.7050      0.00000
     19      30.0028      0.00000
     20      30.8731      0.00000
     21      34.2789      0.00000
     22      34.6730      0.00000
     23      37.0383      0.00000
     24      39.8876      0.00000
     25      39.9485      0.00000
     26      41.0376      0.00000
     27      47.1929      0.00000
     28      49.1215      0.00000
     29      49.9225      0.00000
     30      50.5413      0.00000
     31      51.8739      0.00000
     32      52.8761      0.00000

 k-point    22 :       0.3750    0.3750    0.3750
  band No.  band energies     occupation 
      1       1.8948      1.00000
      2       2.2230      1.00000
      3       2.2230      1.00000
      4       2.3827      1.00000
      5       2.5796      1.00000
      6       2.5796      1.00000
      7       4.5879      1.00000
      8       4.5879      1.00000
      9       4.6553      1.00001
     10       4.6553      1.00001
     11       8.7992     -0.00000
     12      12.3002      0.00000
     13      12.3002      0.00000
     14      14.7306      0.00000
     15      17.0684      0.00000
     16      17.0684      0.00000
     17      18.3342      0.00000
     18      21.6104      0.00000
     19      36.0929      0.00000
     20      36.0929      0.00000
     21      38.0087      0.00000
     22      40.5943      0.00000
     23      40.5943      0.00000
     24      43.0424      0.00000
     25      43.7886      0.00000
     26      45.1246      0.00000
     27      45.1246      0.00000
     28      46.8204      0.00000
     29      46.8204      0.00000
     30      47.5281      0.00000
     31      51.6428      0.00000
     32      51.6780      0.00000

 k-point    23 :      -0.3750    0.3750    0.3750
  band No.  band energies     occupation 
      1       1.8948      1.00000
      2       2.2230      1.00000
      3       2.2230      1.00000
      4       2.3827      1.00000
      5       2.5796      1.00000
      6       2.5796      1.00000
      7       4.5879      1.00000
      8       4.5879      1.00000
      9       4.6553      1.00001
     10       4.6553      1.00001
     11       8.7992     -0.00000
     12      12.3002      0.00000
     13      12.3002      0.00000
     14      14.7306      0.00000
     15      17.0684      0.00000
     16      17.0684      0.00000
     17      18.3342      0.00000
     18      21.6104      0.00000
     19      36.0929      0.00000
     20      36.0929      0.00000
     21      38.0087      0.00000
     22      40.5943      0.00000
     23      40.5943      0.00000
     24      43.0424      0.00000
     25      43.7886      0.00000
     26      45.1246      0.00000
     27      45.1246      0.00000
     28      46.8204      0.00000
     29      46.8204      0.00000
     30      47.5281      0.00000
     31      51.6428      0.00000
     32      51.6780      0.00000

 k-point    24 :      -0.1250    0.3750    0.3750
  band No.  band energies     occupation 
      1       0.9087      1.00000
      2       1.2791      1.00000
      3       2.3339      1.00000
      4       2.4922      1.00000
      5       3.2003      1.00000
      6       3.6209      1.00000
      7       4.3459      1.00000
      8       4.4503      1.00000
      9       4.5701      1.00000
     10       5.3503      0.41796
     11       6.2015     -0.00000
     12       8.6682     -0.00000
     13      12.7745      0.00000
     14      15.7513      0.00000
     15      19.3248      0.00000
     16      22.5820      0.00000
     17      24.1995      0.00000
     18      25.7050      0.00000
     19      30.0028      0.00000
     20      30.8731      0.00000
     21      34.2789      0.00000
     22      34.6730      0.00000
     23      37.0383      0.00000
     24      39.8876      0.00000
     25      39.9485      0.00000
     26      41.0376      0.00000
     27      47.1929      0.00000
     28      49.1215      0.00000
     29      49.9225      0.00000
     30      50.5413      0.00000
     31      51.8739      0.00000
     32      52.8761      0.00000

 k-point    25 :       0.1250   -0.3750    0.3750
  band No.  band energies     occupation 
      1       0.9087      1.00000
      2       1.2791      1.00000
      3       2.3339      1.00000
      4       2.4922      1.00000
      5       3.2003      1.00000
      6       3.6208      1.00000
      7       4.3459      1.00000
      8       4.4503      1.00000
      9       4.5701      1.00000
     10       5.3503      0.41796
     11       6.2015     -0.00000
     12       8.6682     -0.00000
     13      12.7745      0.00000
     14      15.7513      0.00000
     15      19.3248      0.00000
     16      22.5820      0.00000
     17      24.1995      0.00000
     18      25.7050      0.00000
     19      30.0028      0.00000
     20      30.8731      0.00000
     21      34.2789      0.00000
     22      34.6730      0.00000
     23      37.0383      0.00000
     24      39.8876      0.00000
     25      39.9485      0.00000
     26      41.0376      0.00000
     27      47.1929      0.00000
     28      49.1215      0.00000
     29      49.9225      0.00000
     30      50.5413      0.00000
     31      51.8739      0.00000
     32      52.8761      0.00000

 k-point    26 :       0.3750   -0.3750    0.3750
  band No.  band energies     occupation 
      1       1.8948      1.00000
      2       2.2230      1.00000
      3       2.2230      1.00000
      4       2.3827      1.00000
      5       2.5796      1.00000
      6       2.5796      1.00000
      7       4.5879      1.00000
      8       4.5879      1.00000
      9       4.6553      1.00001
     10       4.6553      1.00001
     11       8.7992     -0.00000
     12      12.3002      0.00000
     13      12.3002      0.00000
     14      14.7306      0.00000
     15      17.0684      0.00000
     16      17.0684      0.00000
     17      18.3342      0.00000
     18      21.6104      0.00000
     19      36.0929      0.00000
     20      36.0929      0.00000
     21      38.0087      0.00000
     22      40.5943      0.00000
     23      40.5943      0.00000
     24      43.0424      0.00000
     25      43.7886      0.00000
     26      45.1246      0.00000
     27      45.1246      0.00000
     28      46.8204      0.00000
     29      46.8204      0.00000
     30      47.5281      0.00000
     31      51.6428      0.00000
     32      51.6780      0.00000

 k-point    27 :      -0.3750   -0.3750    0.3750
  band No.  band energies     occupation 
      1       1.8948      1.00000
      2       2.2230      1.00000
      3       2.2230      1.00000
      4       2.3827      1.00000
      5       2.5796      1.00000
      6       2.5796      1.00000
      7       4.5879      1.00000
      8       4.5879      1.00000
      9       4.6553      1.00001
     10       4.6553      1.00001
     11       8.7992     -0.00000
[...]
      8       7.2364     -0.00000
      9       7.2816     -0.00000
     10       7.2816     -0.00000
     11      10.2255     -0.00000
     12      13.2717      0.00000
     13      13.2717      0.00000
     14      15.5795      0.00000
     15      17.7508      0.00000
     16      17.7508      0.00000
     17      18.9702      0.00000
     18      22.1339      0.00000
     19      36.0980      0.00000
     20      36.0980      0.00000
     21      37.7159      0.00000
     22      40.7276      0.00000
     23      40.7276      0.00000
     24      43.7296      0.00000
     25      43.9272      0.00000
     26      45.7842      0.00000
     27      45.7842      0.00000
     28      47.0338      0.00000
     29      47.0338      0.00000
     30      48.1435      0.00000
     31      51.4237      0.00000
     32      52.2379      0.00000

 k-point    28 :      -0.1250   -0.3750    0.3750
  band No.  band energies     occupation 
      1       1.7584      1.00000
      2       2.6283      1.00000
      3       3.9936      1.00000
      4       4.1542      1.00000
      5       4.7039      1.00004
      6       4.7289      1.00009
      7       6.6914     -0.00000
      8       6.9426     -0.00000
      9       7.2932     -0.00000
     10       7.5813     -0.00000
     11       8.0262     -0.00000
     12       9.8576     -0.00000
     13      13.9825      0.00000
     14      16.6456      0.00000
     15      19.8761      0.00000
     16      22.8597      0.00000
     17      24.7940      0.00000
     18      25.9930      0.00000
     19      30.4208      0.00000
     20      31.0272      0.00000
     21      34.3521      0.00000
     22      35.1951      0.00000
     23      37.5245      0.00000
     24      40.0660      0.00000
     25      40.0923      0.00000
     26      41.7944      0.00000
     27      47.5433      0.00000
     28      49.7714      0.00000
     29      50.4892      0.00000
     30      50.5192      0.00000
     31      52.4088      0.00000
     32      53.3837      0.00000

 k-point    29 :       0.1250   -0.1250    0.3750
  band No.  band energies     occupation 
      1       0.4806      1.00000
      2       2.8864      1.00000
      3       3.8621      1.00000
      4       4.6056      1.00000
      5       4.6951      1.00003
      6       5.1225      1.02891
      7       6.2723     -0.00000
      8       6.3021     -0.00000
      9       6.6947     -0.00000
     10       7.3235     -0.00000
     11       7.4985     -0.00000
     12       9.5663     -0.00000
     13      17.8009      0.00000
     14      18.2574      0.00000
     15      21.8239      0.00000
     16      22.7419      0.00000
     17      25.5535      0.00000
     18      27.0286      0.00000
     19      28.9079      0.00000
     20      29.3646      0.00000
     21      32.9922      0.00000
     22      34.6359      0.00000
     23      37.5241      0.00000
     24      37.6771      0.00000
     25      40.9145      0.00000
     26      42.9371      0.00000
     27      44.1703      0.00000
     28      45.3405      0.00000
     29      46.3640      0.00000
     30      48.7906      0.00000
     31      51.3763      0.00000
     32      52.5452      0.00000

 k-point    30 :       0.3750   -0.1250    0.3750
  band No.  band energies     occupation 
      1       1.7584      1.00000
      2       2.6283      1.00000
      3       3.9936      1.00000
      4       4.1542      1.00000
      5       4.7039      1.00004
      6       4.7289      1.00009
      7       6.6914     -0.00000
      8       6.9426     -0.00000
      9       7.2932     -0.00000
     10       7.5813     -0.00000
     11       8.0262     -0.00000
     12       9.8576     -0.00000
     13      13.9825      0.00000
     14      16.6456      0.00000
     15      19.8761      0.00000
     16      22.8597      0.00000
     17      24.7940      0.00000
     18      25.9930      0.00000
     19      30.4208      0.00000
     20      31.0272      0.00000
     21      34.3521      0.00000
     22      35.1951      0.00000
     23      37.5245      0.00000
     24      40.0660      0.00000
     25      40.0923      0.00000
     26      41.7944      0.00000
     27      47.5433      0.00000
     28      49.7714      0.00000
     29      50.4892      0.00000
     30      50.5192      0.00000
     31      52.4088      0.00000
     32      53.3837      0.00000

 k-point    31 :      -0.3750   -0.1250    0.3750
  band No.  band energies     occupation 
      1       1.7584      1.00000
      2       2.6283      1.00000
      3       3.9936      1.00000
      4       4.1542      1.00000
      5       4.7039      1.00004
      6       4.7289      1.00009
      7       6.6914     -0.00000
      8       6.9426     -0.00000
      9       7.2932     -0.00000
     10       7.5813     -0.00000
     11       8.0262     -0.00000
     12       9.8576     -0.00000
     13      13.9825      0.00000
     14      16.6456      0.00000
     15      19.8761      0.00000
     16      22.8597      0.00000
     17      24.7940      0.00000
     18      25.9930      0.00000
     19      30.4208      0.00000
     20      31.0272      0.00000
     21      34.3521      0.00000
     22      35.1951      0.00000
     23      37.5245      0.00000
     24      40.0660      0.00000
     25      40.0923      0.00000
     26      41.7944      0.00000
     27      47.5433      0.00000
     28      49.7714      0.00000
     29      50.4892      0.00000
     30      50.5192      0.00000
     31      52.4088      0.00000
     32      53.3837      0.00000

 k-point    32 :      -0.1250   -0.1250    0.3750
  band No.  band energies     occupation 
      1       0.4806      1.00000
      2       2.8864      1.00000
      3       3.8621      1.00000
      4       4.6056      1.00000
      5       4.6951      1.00003
      6       5.1225      1.02891
      7       6.2723     -0.00000
      8       6.3021     -0.00000
      9       6.6947     -0.00000
     10       7.3235     -0.00000
     11       7.4985     -0.00000
     12       9.5663     -0.00000
     13      17.8009      0.00000
     14      18.2574      0.00000
     15      21.8239      0.00000
     16      22.7419      0.00000
     17      25.5535      0.00000
     18      27.0286      0.00000
     19      28.9079      0.00000
     20      29.3646      0.00000
     21      32.9922      0.00000
     22      34.6359      0.00000
     23      37.5241      0.00000
     24      37.6771      0.00000
     25      40.9145      0.00000
     26      42.9371      0.00000
     27      44.1703      0.00000
     28      45.3405      0.00000
     29      46.3640      0.00000
     30      48.7906      0.00000
     31      51.3763      0.00000
     32      52.5452      0.00000


--------------------------------------------------------------------------------------------------------


 soft charge-density along one line, spin component           1
         0         1         2         3         4         5         6         7         8         9
 total charge-density along one line
 
 soft charge-density along one line, spin component           2
         0         1         2         3         4         5         6         7         8         9
 total charge-density along one line
 
 pseudopotential strength for first ion, spin component:           1
 -5.802   0.000   0.000  -0.000  -0.000  -6.326   0.000   0.000
  0.000  -5.802  -0.000  -0.000  -0.000   0.000  -6.326  -0.000
  0.000  -0.000  -5.987   0.000  -0.000   0.000  -0.000  -6.506
 -0.000  -0.000   0.000  -5.802  -0.000  -0.000  -0.000   0.000
 -0.000  -0.000  -0.000  -0.000  -5.987  -0.000  -0.000  -0.000
 -6.326   0.000   0.000  -0.000  -0.000  -6.809   0.000   0.000
  0.000  -6.326  -0.000  -0.000  -0.000   0.000  -6.809  -0.000
  0.000  -0.000  -6.506   0.000  -0.000   0.000  -0.000  -6.984
 -0.000  -0.000   0.000  -6.326  -0.000  -0.000  -0.000   0.000
 -0.000  -0.000  -0.000  -0.000  -6.506  -0.000  -0.000  -0.000
 -0.000   0.000  -0.000   0.000  -0.000  -0.000   0.000  -0.000
 -0.000   0.000  -0.000   0.000  -0.000  -0.000   0.000  -0.000
 -0.000  -0.000  -0.000   0.000   0.000  -0.000  -0.000  -0.000
  0.000  -0.000  -0.000   0.000   0.000   0.000  -0.000  -0.000
  0.000   0.000   0.000   0.000   0.000   0.000   0.000   0.000
 -0.000  -0.000  -0.000  -0.000   0.000  -0.000  -0.000  -0.000
 -0.000  -0.000  -0.000   0.000   0.000  -0.000  -0.000  -0.000
  0.000  -0.000   0.000   0.000   0.000   0.000  -0.000   0.000
 pseudopotential strength for first ion, spin component:           2
 -4.388   0.000   0.000   0.000   0.000  -4.958   0.000   0.000
  0.000  -4.388   0.000  -0.000  -0.000   0.000  -4.958   0.000
  0.000   0.000  -4.142   0.000  -0.000   0.000   0.000  -4.717
  0.000  -0.000   0.000  -4.388   0.000   0.000  -0.000   0.000
  0.000  -0.000  -0.000   0.000  -4.142   0.000  -0.000  -0.000
 -4.958   0.000   0.000   0.000   0.000  -5.484   0.000   0.000
  0.000  -4.958   0.000  -0.000  -0.000   0.000  -5.484   0.000
  0.000   0.000  -4.717   0.000  -0.000   0.000   0.000  -5.248
  0.000  -0.000   0.000  -4.958   0.000   0.000  -0.000   0.000
  0.000  -0.000  -0.000   0.000  -4.717   0.000  -0.000  -0.000
  0.000  -0.000  -0.000  -0.000  -0.000   0.000  -0.000  -0.000
  0.000  -0.000  -0.000  -0.000  -0.000   0.000  -0.000  -0.000
 -0.000   0.000   0.000   0.000  -0.000   0.000   0.000   0.000
  0.000   0.000  -0.000  -0.000  -0.000   0.000   0.000  -0.000
 -0.000   0.000   0.000  -0.000  -0.000  -0.000   0.000  -0.000
 -0.000   0.000   0.000   0.000  -0.000  -0.000   0.000   0.000
  0.000   0.000  -0.000  -0.000  -0.000   0.000   0.000  -0.000
 -0.000   0.000   0.000  -0.000  -0.000  -0.000   0.000   0.000
 total augmentation occupancy for first ion, spin component:           1
  2.141  -0.000  -0.000   0.000   0.000  -1.114  -0.000   0.000  -0.000  -0.000  -0.000  -0.000  -0.000   0.000  -0.000   0.000
 -0.000   2.141  -0.000   0.000   0.000  -0.000  -1.114   0.000   0.000  -0.000  -0.000   0.000   0.000   0.000  -0.000  -0.000
 -0.000  -0.000   3.546  -0.000  -0.000   0.000   0.000  -2.216   0.000   0.000  -0.000   0.000  -0.000   0.000   0.000   0.000
  0.000   0.000  -0.000   2.141   0.000  -0.000   0.000   0.000  -1.114  -0.000   0.000  -0.000  -0.000   0.000  -0.000   0.000
  0.000   0.000  -0.000   0.000   3.546  -0.000  -0.000   0.000  -0.000  -2.216   0.000   0.000   0.000  -0.000   0.000  -0.000
 -1.114  -0.000   0.000  -0.000  -0.000   1.473   0.000   0.000   0.000   0.000   0.000   0.000  -0.000  -0.000   0.000   0.000
 -0.000  -1.114   0.000   0.000  -0.000   0.000   1.473  -0.000  -0.000   0.000   0.000  -0.000  -0.000  -0.000   0.000   0.000
  0.000   0.000  -2.216   0.000   0.000   0.000  -0.000   2.152  -0.000  -0.000  -0.000  -0.000   0.000  -0.000  -0.000  -0.000
 -0.000   0.000   0.000  -1.114  -0.000   0.000  -0.000  -0.000   1.473   0.000  -0.000  -0.000   0.000   0.000   0.000  -0.000
 -0.000  -0.000   0.000  -0.000  -2.216   0.000   0.000  -0.000   0.000   2.152  -0.000   0.000  -0.000   0.000  -0.000   0.000
 -0.000  -0.000  -0.000   0.000   0.000   0.000   0.000  -0.000  -0.000  -0.000   2.336  -0.264   0.000  -0.000   0.000  -0.000
 -0.000   0.000   0.000  -0.000   0.000   0.000  -0.000  -0.000  -0.000   0.000  -0.264   0.035  -0.000   0.000  -0.000   0.000
 -0.000   0.000  -0.000  -0.000   0.000  -0.000  -0.000   0.000   0.000  -0.000   0.000  -0.000   0.282  -0.000   0.000  -0.024
  0.000   0.000   0.000   0.000  -0.000  -0.000  -0.000  -0.000   0.000   0.000  -0.000   0.000  -0.000   0.282  -0.000   0.000
 -0.000  -0.000   0.000  -0.000   0.000   0.000   0.000  -0.000   0.000  -0.000   0.000  -0.000   0.000  -0.000   0.282  -0.000
  0.000  -0.000   0.000   0.000  -0.000   0.000   0.000  -0.000  -0.000   0.000  -0.000   0.000  -0.024   0.000  -0.000   0.002
 -0.000  -0.000  -0.000  -0.000   0.000   0.000   0.000   0.000  -0.000  -0.000  -0.000   0.000   0.000  -0.024   0.000  -0.000
  0.000   0.000  -0.000   0.000  -0.000  -0.000  -0.000   0.000  -0.000   0.000  -0.000   0.000  -0.000   0.000  -0.024   0.000
 total augmentation occupancy for first ion, spin component:           2
  1.792  -0.000  -0.000  -0.000   0.000  -0.742   0.000   0.000   0.000  -0.000  -0.000  -0.000  -0.000   0.000   0.000   0.000
 -0.000   1.792  -0.000   0.000   0.000   0.000  -0.742   0.000  -0.000  -0.000   0.000   0.000   0.000  -0.000  -0.000  -0.000
 -0.000  -0.000   3.083  -0.000  -0.000   0.000   0.000  -1.381   0.000   0.000  -0.000   0.000  -0.000   0.000   0.000   0.000
 -0.000   0.000  -0.000   1.792   0.000   0.000  -0.000   0.000  -0.742  -0.000  -0.000   0.000  -0.000   0.000  -0.000   0.000
  0.000   0.000  -0.000   0.000   3.083  -0.000  -0.000   0.000  -0.000  -1.381  -0.000   0.000   0.000  -0.000   0.000  -0.000
 -0.742   0.000   0.000   0.000  -0.000   0.065  -0.000  -0.000  -0.000   0.000  -0.000   0.000   0.000   0.000  -0.000  -0.000
  0.000  -0.742   0.000  -0.000  -0.000  -0.000   0.065  -0.000   0.000   0.000  -0.000   0.000   0.000   0.000   0.000  -0.000
  0.000   0.000  -1.381   0.000   0.000  -0.000  -0.000   0.399  -0.000  -0.000   0.000  -0.000  -0.000   0.000  -0.000   0.000
  0.000  -0.000   0.000  -0.742  -0.000  -0.000   0.000  -0.000   0.065   0.000   0.000   0.000  -0.000  -0.000  -0.000   0.000
 -0.000  -0.000   0.000  -0.000  -1.381   0.000   0.000  -0.000   0.000   0.399   0.000  -0.000   0.000   0.000  -0.000  -0.000
 -0.000   0.000  -0.000  -0.000  -0.000  -0.000  -0.000   0.000   0.000   0.000  -0.313   0.095  -0.000   0.000  -0.000   0.000
 -0.000   0.000   0.000   0.000   0.000   0.000   0.000  -0.000   0.000  -0.000   0.095  -0.016   0.000  -0.000   0.000  -0.000
 -0.000   0.000  -0.000  -0.000   0.000   0.000   0.000  -0.000  -0.000   0.000  -0.000   0.000  -0.040   0.000  -0.000   0.006
  0.000  -0.000   0.000   0.000  -0.000   0.000   0.000   0.000  -0.000   0.000   0.000  -0.000   0.000  -0.040   0.000  -0.000
  0.000  -0.000   0.000  -0.000   0.000  -0.000   0.000  -0.000  -0.000  -0.000  -0.000   0.000  -0.000   0.000  -0.040   0.000
  0.000  -0.000   0.000   0.000  -0.000  -0.000  -0.000   0.000   0.000  -0.000   0.000  -0.000   0.006  -0.000   0.000  -0.001
 -0.000   0.000  -0.000  -0.000   0.000  -0.000  -0.000  -0.000   0.000  -0.000  -0.000   0.000  -0.000   0.006  -0.000   0.000
 -0.000   0.000  -0.000   0.000  -0.000   0.000  -0.000   0.000   0.000   0.000   0.000  -0.000   0.000  -0.000   0.006  -0.000


------------------------ aborting loop because EDIFF is reached ----------------------------------------


    CHARGE:  cpu time    0.0060: real time    0.0065
    FORLOC:  cpu time    0.0000: real time    0.0000
    FORNL :  cpu time    0.0180: real time    0.0175
    STRESS:  cpu time    0.0960: real time    0.0954
    FORCOR:  cpu time    0.0040: real time    0.0031
    FORHAR:  cpu time    0.0000: real time    0.0005
    MIXING:  cpu time    0.0000: real time    0.0004
    OFIELD:  cpu time    0.0000: real time    0.0000

  FORCE on cell =-STRESS in cart. coord.  units (eV):
  Direction    XX          YY          ZZ          XY          YZ          ZX
  --------------------------------------------------------------------------------------
  Alpha Z   118.17525   118.17525   118.17525
  Ewald    -390.89368  -390.89368  -390.89368     0.00000     0.00000     0.00000
  Hartree    64.64796    64.64796    64.64796     0.00000    -0.00000    -0.00000
  E(xc)     -79.07112   -79.07112   -79.07112    -0.00000     0.00000     0.00000
  Local     116.09167   116.09167   116.09167    -0.00000     0.00000     0.00000
  n-local   -52.29787   -52.29787   -52.29787    -0.00000     0.00000    -0.00000
  augment    77.50326    77.50326    77.50326    -0.00000     0.00000     0.00000
  Kinetic   144.69719   144.69719   144.69719    -0.00000     0.00000    -0.00000
  Fock        0.00000     0.00000     0.00000     0.00000     0.00000     0.00000
  -------------------------------------------------------------------------------------
  Total      -1.14734    -1.14734    -1.14734    -0.00000     0.00000    -0.00000
  in kB     -78.57839   -78.57842   -78.57833    -0.00005     0.00012    -0.00007
  external pressure =      -78.58 kB  Pullay stress =        0.00 kB


 VOLUME and BASIS-vectors are now :
 -----------------------------------------------------------------------------
  energy-cutoff  :      500.00
  volume of cell :       23.39
      direct lattice vectors                 reciprocal lattice vectors
     2.860000000  0.000000000  0.000000000     0.349650350  0.000000000  0.000000000
     0.000000000  2.860000000  0.000000000     0.000000000  0.349650350  0.000000000
     0.000000000  0.000000000  2.860000000     0.000000000  0.000000000  0.349650350

  length of vectors
     2.860000000  2.860000000  2.860000000     0.349650350  0.349650350  0.349650350


 FORCES acting on ions
    electron-ion (+dipol)            ewald-force                    non-local-force                 convergence-correction
 -----------------------------------------------------------------------------------------------
   0.820E-07 0.647E-07 -.111E-07   0.219E-14 -.742E-15 -.130E-14   0.788E-07 0.814E-07 0.315E-07   -.544E-08 0.548E-08 0.783E-07
   -.905E-07 -.685E-07 0.136E-07   -.209E-14 0.143E-14 -.194E-15   -.107E-06 -.976E-07 -.226E-07   0.619E-07 0.403E-07 -.732E-07
 -----------------------------------------------------------------------------------------------
   -.852E-08 -.375E-08 0.247E-08   0.102E-15 0.685E-15 -.150E-14   -.281E-07 -.162E-07 0.884E-08   0.565E-07 0.458E-07 0.513E-08
 
 
 POSITION                                       TOTAL-FORCE (eV/Angst)
 -----------------------------------------------------------------------------------
      0.00000      0.00000      0.00000         0.000000      0.000000      0.000000
      1.43000      1.43000      1.43000        -0.000000     -0.000000     -0.000000
 -----------------------------------------------------------------------------------
    total drift:                                0.000000      0.000000      0.000000


--------------------------------------------------------------------------------------------------------



  FREE ENERGIE OF THE ION-ELECTRON SYSTEM (eV)
  ---------------------------------------------------
  free  energy   TOTEN  =       -16.49782386 eV

  energy  without entropy=      -16.48668500  energy(sigma->0) =      -16.49411091
 


--------------------------------------------------------------------------------------------------------


    POTLOK:  cpu time    0.0110: real time    0.0108


--------------------------------------------------------------------------------------------------------




--------------------------------------------------------------------------------------------------------


  
 reached required accuracy - stopping structural energy minimisation
     LOOP+:  cpu time   14.5328: real time   14.7043
    4ORBIT:  cpu time    0.0000: real time    0.0000

 total amount of memory used by VASP on root node    34046. kBytes
========================================================================

   base      :      30000. kBytes
   nonl-proj :       2821. kBytes
   fftplans  :         62. kBytes
   grid      :        413. kBytes
   one-center:         62. kBytes
   wavefun   :        688. kBytes
 
  
  
 General timing and accounting informations for this job:
 ========================================================
  
                  Total CPU time used (sec):       15.816
                            User time (sec):       15.016
                          System time (sec):        0.800
                         Elapsed time (sec):       16.462
  
                   Maximum memory used (kb):       75640.
                   Average memory used (kb):           0.
  
                          Minor page faults:       287804
                          Major page faults:            0
                 Voluntary context switches:         3700
