 vasp.5.4.1 24Jun15 (build May 02 2016 14:41:14) complex                        
  
 executed on           IFC91_ompi date 2025.11.12  12:26:48
 running on   32 total cores
 distrk:  each k-point on   32 cores,    1 groups
 distr:  one band on NCORES_PER_BAND=   1 cores,   32 groups


--------------------------------------------------------------------------------------------------------


 INCAR:
 POTCAR:    PAW_PBE Fe 06Sep2000                  

 ----------------------------------------------------------------------------- 
|                                                                             |
|           W    W    AA    RRRRR   N    N  II  N    N   GGGG   !!!           |
|           W    W   A  A   R    R  NN   N  II  NN   N  G    G  !!!           |
|           W    W  A    A  R    R  N N  N  II  N N  N  G       !!!           |
|           W WW W  AAAAAA  RRRRR   N  N N  II  N  N N  G  GGG   !            |
|           WW  WW  A    A  R   R   N   NN  II  N   NN  G    G                |
|           W    W  A    A  R    R  N    N  II  N    N   GGGG   !!!           |
|                                                                             |
|      For optimal performance we recommend to set                            |
|        NCORE= 4 - approx SQRT( number of cores)                             |
|      NCORE specifies how many cores store one orbital (NPAR=cpu/NCORE).     |
|      This setting can  greatly improve the performance of VASP for DFT.     |
|      The default, NPAR=number of cores might be grossly inefficient         |
|      on modern multi-core architectures or massively parallel machines.     |
|      Do your own testing !!!!                                               |
|      Unfortunately you need to use the default for GW and RPA calculations. |
|      (for HF NCORE is supported but not extensively tested yet)             |
|                                                                             |
 ----------------------------------------------------------------------------- 

 POTCAR:    PAW_PBE Fe 06Sep2000                  
   VRHFIN =Fe:  d7 s1                                                           
   LEXCH  = PE                                                                  
   EATOM  =   594.3153 eV,   43.6809 Ry                                         
                                                                                
   TITEL  = PAW_PBE Fe 06Sep2000                                                
   LULTRA =        F    use ultrasoft PP ?                                      
   IUNSCR =        1    unscreen: 0-lin 1-nonlin 2-no                           
   RPACOR =    2.000    partial core radius                                     
   POMASS =   55.847; ZVAL   =    8.000    mass and valenz                      
   RCORE  =    2.300    outmost cutoff radius                                   
   RWIGS  =    2.460; RWIGS  =    1.302    wigner-seitz radius (au A)           
   ENMAX  =  267.882; ENMIN  =  200.911 eV                                      
   RCLOC  =    1.701    cutoff for local pot                                    
   LCOR   =        T    correct aug charges                                     
   LPAW   =        T    paw PP                                                  
   EAUG   =  511.368                                                            
   DEXC   =    0.000                                                            
   RMAX   =    2.356    core radius for proj-oper                               
   RAUG   =    1.300    factor for augmentation sphere                          
   RDEP   =    2.442    radius for radial grids                                 
   RDEPT  =    1.890    core radius for aug-charge                              
                                                                                
   Atomic configuration                                                         
    9 entries                                                                   
     n  l   j            E        occ.                                          
     1  0  0.50     -6993.8440   2.0000                                         
     2  0  0.50      -814.6047   2.0000                                         
     2  1  1.50      -693.3689   6.0000                                         
     3  0  0.50       -89.4732   2.0000                                         
     3  1  1.50       -55.6373   6.0000                                         
     3  2  2.50        -3.8151   7.0000                                         
     4  0  0.50        -4.2551   1.0000                                         
     4  1  1.50        -3.4015   0.0000                                         
     4  3  2.50        -1.3606   0.0000                                         
   Description                                                                  
     l       E           TYP  RCUT    TYP  RCUT                                 
     2     -3.8151135     23  2.300                                             
     2     -5.1756961     23  2.300                                             
     0     -4.2550963     23  2.300                                             
     0      7.2035603     23  2.300                                             
     1     -2.7211652     23  2.300                                             
     1     18.4316424     23  2.300                                             
  local pseudopotential read in
  partial core-charges read in
  partial kinetic energy density read in
  atomic valenz-charges read in
  non local Contribution for L=           2  read in
    real space projection operators read in
  non local Contribution for L=           2  read in
    real space projection operators read in
  non local Contribution for L=           0  read in
    real space projection operators read in
  non local Contribution for L=           0  read in
    real space projection operators read in
  non local Contribution for L=           1  read in
    real space projection operators read in
  non local Contribution for L=           1  read in
    real space projection operators read in
    PAW grid and wavefunctions read in
 
   number of l-projection  operators is LMAX  =           6
   number of lm-projection operators is LMMAX =          18
 
  PAW_PBE Fe 06Sep2000                  :
 energy of atom  1       EATOM= -594.3153
 kinetic energy error for atom=    0.0034 (will be added to EATOM!!)
 
 
 POSCAR: BCC Fe                                  
  positions in cartesian coordinates
  No initial velocities read in
 exchange correlation table for  LEXCH =        8
   RHO(1)=    0.500       N(1)  =     2000
   RHO(2)=  100.500       N(2)  =     4000
 


--------------------------------------------------------------------------------------------------------


 ion  position               nearest neighbor table
   1  0.000  0.000  0.000-   2 2.48   2 2.48   2 2.48   2 2.48   2 2.48   2 2.48   2 2.48   2 2.48

   2  0.500  0.500  0.500-   1 2.48   1 2.48   1 2.48   1 2.48   1 2.48   1 2.48   1 2.48   1 2.48

 

IMPORTANT INFORMATION: All symmetrisations will be switched off!
NOSYMM: (Re-)initialisation of all symmetry stuff for point group C_1.

 
 
 KPOINTS: Automatic mesh                          

Automatic generation of k-mesh.
Space group operators:
 irot       det(A)        alpha          n_x          n_y          n_z        tau_x        tau_y        tau_z
    1     1.000000     0.000001     1.000000     0.000000     0.000000     0.000000     0.000000     0.000000
 
 Subroutine IBZKPT returns following result:
 ===========================================
 
 Found     32 irreducible k-points:
 
 Following reciprocal coordinates:
            Coordinates               Weight
  0.125000  0.125000  0.125000      2.000000
  0.375000  0.125000  0.125000      2.000000
 -0.375000  0.125000  0.125000      2.000000
 -0.125000  0.125000  0.125000      2.000000
  0.125000  0.375000  0.125000      2.000000
  0.375000  0.375000  0.125000      2.000000
 -0.375000  0.375000  0.125000      2.000000
 -0.125000  0.375000  0.125000      2.000000
  0.125000 -0.375000  0.125000      2.000000
  0.375000 -0.375000  0.125000      2.000000
 -0.375000 -0.375000  0.125000      2.000000
 -0.125000 -0.375000  0.125000      2.000000
  0.125000 -0.125000  0.125000      2.000000
  0.375000 -0.125000  0.125000      2.000000
 -0.375000 -0.125000  0.125000      2.000000
 -0.125000 -0.125000  0.125000      2.000000
  0.125000  0.125000  0.375000      2.000000
  0.375000  0.125000  0.375000      2.000000
 -0.375000  0.125000  0.375000      2.000000
 -0.125000  0.125000  0.375000      2.000000
  0.125000  0.375000  0.375000      2.000000
  0.375000  0.375000  0.375000      2.000000
 -0.375000  0.375000  0.375000      2.000000
 -0.125000  0.375000  0.375000      2.000000
  0.125000 -0.375000  0.375000      2.000000
  0.375000 -0.375000  0.375000      2.000000
 -0.375000 -0.375000  0.375000      2.000000
 -0.125000 -0.375000  0.375000      2.000000
  0.125000 -0.125000  0.375000      2.000000
  0.375000 -0.125000  0.375000      2.000000
 -0.375000 -0.125000  0.375000      2.000000
 -0.125000 -0.125000  0.375000      2.000000
 
 Following cartesian coordinates:
            Coordinates               Weight
  0.125000  0.125000  0.125000      2.000000
  0.375000  0.125000  0.125000      2.000000
 -0.375000  0.125000  0.125000      2.000000
 -0.125000  0.125000  0.125000      2.000000
  0.125000  0.375000  0.125000      2.000000
  0.375000  0.375000  0.125000      2.000000
 -0.375000  0.375000  0.125000      2.000000
 -0.125000  0.375000  0.125000      2.000000
  0.125000 -0.375000  0.125000      2.000000
  0.375000 -0.375000  0.125000      2.000000
 -0.375000 -0.375000  0.125000      2.000000
 -0.125000 -0.375000  0.125000      2.000000
  0.125000 -0.125000  0.125000      2.000000
  0.375000 -0.125000  0.125000      2.000000
 -0.375000 -0.125000  0.125000      2.000000
 -0.125000 -0.125000  0.125000      2.000000
  0.125000  0.125000  0.375000      2.000000
  0.375000  0.125000  0.375000      2.000000
 -0.375000  0.125000  0.375000      2.000000
 -0.125000  0.125000  0.375000      2.000000
  0.125000  0.375000  0.375000      2.000000
  0.375000  0.375000  0.375000      2.000000
 -0.375000  0.375000  0.375000      2.000000
 -0.125000  0.375000  0.375000      2.000000
  0.125000 -0.375000  0.375000      2.000000
  0.375000 -0.375000  0.375000      2.000000
 -0.375000 -0.375000  0.375000      2.000000
 -0.125000 -0.375000  0.375000      2.000000
  0.125000 -0.125000  0.375000      2.000000
  0.375000 -0.125000  0.375000      2.000000
 -0.375000 -0.125000  0.375000      2.000000
 -0.125000 -0.125000  0.375000      2.000000
 


--------------------------------------------------------------------------------------------------------




 Dimension of arrays:
   k-points           NKPTS =     32   k-points in BZ     NKDIM =     32   number of bands    NBANDS=     32
   number of dos      NEDOS =    301   number of ions     NIONS =      2
   non local maximal  LDIM  =      6   non local SUM 2l+1 LMDIM =     18
   total plane-waves  NPLWV =   4096
   max r-space proj   IRMAX =      1   max aug-charges    IRDMAX=   6436
   dimension x,y,z NGX =    16 NGY =   16 NGZ =   16
   dimension x,y,z NGXF=    32 NGYF=   32 NGZF=   32
   support grid    NGXF=    32 NGYF=   32 NGZF=   32
   ions per type =               2
 NGX,Y,Z   is equivalent  to a cutoff of   9.30,  9.30,  9.30 a.u.
 NGXF,Y,Z  is equivalent  to a cutoff of  18.60, 18.60, 18.60 a.u.


 I would recommend the setting:
   dimension x,y,z NGX =    15 NGY =   15 NGZ =   15
 SYSTEM =  Fe Bulk                                 
 POSCAR =  BCC Fe                                  

 Startparameter for this run:
   NWRITE =      2    write-flag & timer
   PREC   = normal    normal or accurate (medium, high low for compatibility)
   ISTART =      0    job   : 0-new  1-cont  2-samecut
   ICHARG =      2    charge: 1-file 2-atom 10-const
   ISPIN  =      2    spin polarized calculation?
   LNONCOLLINEAR =      F non collinear calculations
   LSORBIT =      F    spin-orbit coupling
   INIWAV =      1    electr: 0-lowe 1-rand  2-diag
   LASPH  =      F    aspherical Exc in radial PAW
   METAGGA=      F    non-selfconsistent MetaGGA calc.

 Electronic Relaxation 1
   ENCUT  =  450.0 eV  33.07 Ry    5.75 a.u.   4.95  4.95  4.95*2*pi/ulx,y,z
   ENINI  =  450.0     initial cutoff
   ENAUG  =  511.4 eV  augmentation charge cutoff
   NELM   =     60;   NELMIN=  6; NELMDL= -5     # of ELM steps 
   EDIFF  = 0.1E-04   stopping-criterion for ELM
   LREAL  =      F    real-space projection
   NLSPLINE    = F    spline interpolate recip. space projectors
   LCOMPAT=      F    compatible to vasp.4.4
   GGA_COMPAT  = T    GGA compatible to vasp.4.4-vasp.4.6
   LMAXPAW     = -100 max onsite density
   LMAXMIX     =    2 max onsite mixed and CHGCAR
   VOSKOWN=      0    Vosko Wilk Nusair interpolation
   ROPT   =    0.00000
 Ionic relaxation
   EDIFFG = -.1E-01   stopping-criterion for IOM
   NSW    =     20    number of steps for IOM
   NBLOCK =      1;   KBLOCK =     20    inner block; outer block 
   IBRION =      2    ionic relax: 0-MD 1-quasi-New 2-CG
   NFREE  =      1    steps in history (QN), initial steepest desc. (CG)
   ISIF   =      2    stress and relaxation
   IWAVPR =     11    prediction:  0-non 1-charg 2-wave 3-comb
   ISYM   =      0    0-nonsym 1-usesym 2-fastsym
   LCORR  =      T    Harris-Foulkes like correction to forces

   POTIM  = 0.5000    time-step for ionic-motion
   TEIN   =    0.0    initial temperature
   TEBEG  =    0.0;   TEEND  =   0.0 temperature during run
   SMASS  =  -3.00    Nose mass-parameter (am)
   estimated Nose-frequenzy (Omega)   =  0.10E-29 period in steps =****** mass=  -0.187E-27a.u.
   SCALEE = 1.0000    scale energy and forces
   NPACO  =    256;   APACO  = 16.0  distance and # of slots for P.C.
   PSTRESS=    0.0 pullay stress

  Mass of Ions in am
   POMASS =  55.85
  Ionic Valenz
   ZVAL   =   8.00
  Atomic Wigner-Seitz radii
   RWIGS  =  -1.00
  virtual crystal weights 
   VCA    =   1.00
   NELECT =      16.0000    total number of electrons
   NUPDOWN=      -1.0000    fix difference up-down

 DOS related values:
   EMIN   =  10.00;   EMAX   =-10.00  energy-range for DOS
   EFERMI =   0.00
   ISMEAR =     1;   SIGMA  =   0.20  broadening in eV -4-tet -1-fermi 0-gaus

 Electronic relaxation 2 (details)
   IALGO  =     38    algorithm
   LDIAG  =      T    sub-space diagonalisation (order eigenvalues)
   LSUBROT=      F    optimize rotation matrix (better conditioning)
   TURBO    =      0    0=normal 1=particle mesh
   IRESTART =      0    0=no restart 2=restart with 2 vectors
   NREBOOT  =      0    no. of reboots
   NMIN     =      0    reboot dimension
   EREF     =   0.00    reference energy to select bands
   IMIX   =      4    mixing-type and parameters
     AMIX     =   0.40;   BMIX     =  1.00
     AMIX_MAG =   1.60;   BMIX_MAG =  1.00
     AMIN     =   0.10
     WC   =   100.;   INIMIX=   1;  MIXPRE=   1;  MAXMIX=  40

 Intra band minimization:
   WEIMIN = 0.0010     energy-eigenvalue tresh-hold
   EBREAK =  0.78E-07  absolut break condition
   DEPER  =   0.30     relativ break condition  

   TIME   =   0.40     timestep for ELM

  volume/ion in A,a.u.               =      11.70        78.93
  Fermi-wavevector in a.u.,A,eV,Ry     =   1.442388  2.725718 28.306695  2.080483
  Thomas-Fermi vector in A             =   2.560914
 
 Write flags
   LWAVE  =      F    write WAVECAR
   LCHARG =      F    write CHGCAR
   LVTOT  =      F    write LOCPOT, total local potential
   LVHAR  =      F    write LOCPOT, Hartree potential only
   LELF   =      F    write electronic localiz. function (ELF)
   LORBIT =      0    0 simple, 1 ext, 2 COOP (PROOUT)


 Dipole corrections
   LMONO  =      F    monopole corrections only (constant potential shift)
   LDIPOL =      F    correct potential (dipole corrections)
   IDIPOL =      0    1-x, 2-y, 3-z, 4-all directions 
   EPSILON=  1.0000000 bulk dielectric constant

 Exchange correlation treatment:
   GGA     =    PE    GGA type
   LEXCH   =     8    internal setting for exchange type
   VOSKOWN=      0    Vosko Wilk Nusair interpolation
   LHFCALC =     F    Hartree Fock is set to
   LHFONE  =     F    Hartree Fock one center treatment
   AEXX    =    0.0000 exact exchange contribution

 Linear response parameters
   LEPSILON=     F    determine dielectric tensor
   LRPA    =     F    only Hartree local field effects (RPA)
   LNABLA  =     F    use nabla operator in PAW spheres
   LVEL    =     F    velocity operator in full k-point grid
   LINTERFAST=   F  fast interpolation
   KINTER  =     0    interpolate to denser k-point grid
   CSHIFT  =0.1000    complex shift for real part using Kramers Kronig
   OMEGAMAX=  -1.0    maximum frequency
   DEG_THRESHOLD= 0.2000000E-02 threshold for treating states as degnerate
   RTIME   =    0.100 relaxation time in fs

 Orbital magnetization related:
   ORBITALMAG=     F  switch on orbital magnetization
   LCHIMAG   =     F  perturbation theory with respect to B field
   DQ        =  0.001000  dq finite difference perturbation B field



--------------------------------------------------------------------------------------------------------


 conjugate gradient relaxation of ions
 charge density and potential will be updated during run
 spin polarized calculation
 Variant of blocked Davidson
 Davidson routine will perform the subspace rotation
 perform sub-space diagonalisation
    after iterative eigenvector-optimisation
 modified Broyden-mixing scheme, WC =      100.0
 initial mixing is a Kerker type mixing with AMIX =  0.4000 and BMIX =      1.0000
 Hartree-type preconditioning will be used
 using additional bands           24
 reciprocal scheme for non local part
 use partial core corrections
 calculate Harris-corrections to forces 
   (improved forces if not selfconsistent)
 use gradient corrections 
 use of overlap-Matrix (Vanderbilt PP)
 Methfessel and Paxton  Order N= 1 SIGMA  =   0.20


--------------------------------------------------------------------------------------------------------


  energy-cutoff  :      450.00
  volume of cell :       23.39
      direct lattice vectors                 reciprocal lattice vectors
     2.860000000  0.000000000  0.000000000     0.349650350  0.000000000  0.000000000
     0.000000000  2.860000000  0.000000000     0.000000000  0.349650350  0.000000000
     0.000000000  0.000000000  2.860000000     0.000000000  0.000000000  0.349650350

  length of vectors
     2.860000000  2.860000000  2.860000000     0.349650350  0.349650350  0.349650350


 
 k-points in units of 2pi/SCALE and weight: Automatic mesh                          
   0.12500000  0.12500000  0.12500000       0.031
   0.37500000  0.12500000  0.12500000       0.031
  -0.37500000  0.12500000  0.12500000       0.031
  -0.12500000  0.12500000  0.12500000       0.031
   0.12500000  0.37500000  0.12500000       0.031
   0.37500000  0.37500000  0.12500000       0.031
  -0.37500000  0.37500000  0.12500000       0.031
  -0.12500000  0.37500000  0.12500000       0.031
   0.12500000 -0.37500000  0.12500000       0.031
   0.37500000 -0.37500000  0.12500000       0.031
  -0.37500000 -0.37500000  0.12500000       0.031
  -0.12500000 -0.37500000  0.12500000       0.031
   0.12500000 -0.12500000  0.12500000       0.031
   0.37500000 -0.12500000  0.12500000       0.031
  -0.37500000 -0.12500000  0.12500000       0.031
  -0.12500000 -0.12500000  0.12500000       0.031
   0.12500000  0.12500000  0.37500000       0.031
   0.37500000  0.12500000  0.37500000       0.031
  -0.37500000  0.12500000  0.37500000       0.031
  -0.12500000  0.12500000  0.37500000       0.031
   0.12500000  0.37500000  0.37500000       0.031
   0.37500000  0.37500000  0.37500000       0.031
  -0.37500000  0.37500000  0.37500000       0.031
  -0.12500000  0.37500000  0.37500000       0.031
   0.12500000 -0.37500000  0.37500000       0.031
   0.37500000 -0.37500000  0.37500000       0.031
  -0.37500000 -0.37500000  0.37500000       0.031
  -0.12500000 -0.37500000  0.37500000       0.031
   0.12500000 -0.12500000  0.37500000       0.031
   0.37500000 -0.12500000  0.37500000       0.031
  -0.37500000 -0.12500000  0.37500000       0.031
  -0.12500000 -0.12500000  0.37500000       0.031
 
 k-points in reciprocal lattice and weights: Automatic mesh                          
   0.12500000  0.12500000  0.12500000       0.031
   0.37500000  0.12500000  0.12500000       0.031
  -0.37500000  0.12500000  0.12500000       0.031
  -0.12500000  0.12500000  0.12500000       0.031
   0.12500000  0.37500000  0.12500000       0.031
   0.37500000  0.37500000  0.12500000       0.031
  -0.37500000  0.37500000  0.12500000       0.031
  -0.12500000  0.37500000  0.12500000       0.031
   0.12500000 -0.37500000  0.12500000       0.031
   0.37500000 -0.37500000  0.12500000       0.031
  -0.37500000 -0.37500000  0.12500000       0.031
  -0.12500000 -0.37500000  0.12500000       0.031
   0.12500000 -0.12500000  0.12500000       0.031
   0.37500000 -0.12500000  0.12500000       0.031
  -0.37500000 -0.12500000  0.12500000       0.031
  -0.12500000 -0.12500000  0.12500000       0.031
   0.12500000  0.12500000  0.37500000       0.031
   0.37500000  0.12500000  0.37500000       0.031
  -0.37500000  0.12500000  0.37500000       0.031
  -0.12500000  0.12500000  0.37500000       0.031
   0.12500000  0.37500000  0.37500000       0.031
   0.37500000  0.37500000  0.37500000       0.031
  -0.37500000  0.37500000  0.37500000       0.031
  -0.12500000  0.37500000  0.37500000       0.031
   0.12500000 -0.37500000  0.37500000       0.031
   0.37500000 -0.37500000  0.37500000       0.031
  -0.37500000 -0.37500000  0.37500000       0.031
  -0.12500000 -0.37500000  0.37500000       0.031
   0.12500000 -0.12500000  0.37500000       0.031
   0.37500000 -0.12500000  0.37500000       0.031
  -0.37500000 -0.12500000  0.37500000       0.031
  -0.12500000 -0.12500000  0.37500000       0.031
 
 position of ions in fractional coordinates (direct lattice) 
   0.00000000  0.00000000  0.00000000
   0.50000000  0.50000000  0.50000000
 
 position of ions in cartesian coordinates  (Angst):
   0.00000000  0.00000000  0.00000000
   1.43000000  1.43000000  1.43000000
 


--------------------------------------------------------------------------------------------------------


 k-point  1 :   0.1250 0.1250 0.1250  plane waves:     491
 k-point  2 :   0.3750 0.1250 0.1250  plane waves:     506
 k-point  3 :  -0.3750 0.1250 0.1250  plane waves:     506
 k-point  4 :  -0.1250 0.1250 0.1250  plane waves:     491
 k-point  5 :   0.1250 0.3750 0.1250  plane waves:     506
 k-point  6 :   0.3750 0.3750 0.1250  plane waves:     508
 k-point  7 :  -0.3750 0.3750 0.1250  plane waves:     508
 k-point  8 :  -0.1250 0.3750 0.1250  plane waves:     506
 k-point  9 :   0.1250-0.3750 0.1250  plane waves:     506
 k-point 10 :   0.3750-0.3750 0.1250  plane waves:     508
 k-point 11 :  -0.3750-0.3750 0.1250  plane waves:     508
 k-point 12 :  -0.1250-0.3750 0.1250  plane waves:     506
 k-point 13 :   0.1250-0.1250 0.1250  plane waves:     491
 k-point 14 :   0.3750-0.1250 0.1250  plane waves:     506
 k-point 15 :  -0.3750-0.1250 0.1250  plane waves:     506
 k-point 16 :  -0.1250-0.1250 0.1250  plane waves:     491
 k-point 17 :   0.1250 0.1250 0.3750  plane waves:     506
 k-point 18 :   0.3750 0.1250 0.3750  plane waves:     508
 k-point 19 :  -0.3750 0.1250 0.3750  plane waves:     508
 k-point 20 :  -0.1250 0.1250 0.3750  plane waves:     506
 k-point 21 :   0.1250 0.3750 0.3750  plane waves:     508
 k-point 22 :   0.3750 0.3750 0.3750  plane waves:     510
 k-point 23 :  -0.3750 0.3750 0.3750  plane waves:     510
 k-point 24 :  -0.1250 0.3750 0.3750  plane waves:     508
 k-point 25 :   0.1250-0.3750 0.3750  plane waves:     508
 k-point 26 :   0.3750-0.3750 0.3750  plane waves:     510
 k-point 27 :  -0.3750-0.3750 0.3750  plane waves:     510
 k-point 28 :  -0.1250-0.3750 0.3750  plane waves:     508
 k-point 29 :   0.1250-0.1250 0.3750  plane waves:     506
 k-point 30 :   0.3750-0.1250 0.3750  plane waves:     508
 k-point 31 :  -0.3750-0.1250 0.3750  plane waves:     508
 k-point 32 :  -0.1250-0.1250 0.3750  plane waves:     506

 maximum and minimum number of plane-waves per node :       510      491

 maximum number of plane-waves:       510
 maximum index in each direction: 
   IXMAX=    5   IYMAX=    5   IZMAX=    4
   IXMIN=   -5   IYMIN=   -5   IZMIN=   -5

 WARNING: aliasing errors must be expected set NGX to  22 to avoid them
 WARNING: aliasing errors must be expected set NGY to  22 to avoid them
 WARNING: aliasing errors must be expected set NGZ to  20 to avoid them
 aliasing errors are usually negligible using standard VASP settings
 and one can safely disregard these warnings

 serial   3D FFT for wavefunctions
 parallel 3D FFT for charge:
    minimum data exchange during FFTs selected (reduces bandwidth)


 total amount of memory used by VASP on root node    33501. kBytes
========================================================================

   base      :      30000. kBytes
   nonl-proj :       2375. kBytes
   fftplans  :         62. kBytes
   grid      :        413. kBytes
   one-center:         62. kBytes
   wavefun   :        589. kBytes
 
     INWAV:  cpu time    0.0000: real time    0.0000
 Broyden mixing: mesh for mixing (old mesh)
   NGX =  9   NGY =  9   NGZ =  9
  (NGX  = 32   NGY  = 32   NGZ  = 32)
  gives a total of    729 points

 initial charge density was supplied:
 charge density of overlapping atoms calculated
 number of electron      16.0000000 magnetization       2.0000000
 keeping initial charge density in first step


--------------------------------------------------------------------------------------------------------


 Maximum index for augmentation-charges          401 (set IRDMAX)


--------------------------------------------------------------------------------------------------------


 First call to EWALD:  gamma=   0.620
 Maximum number of real-space cells 3x 3x 3
 Maximum number of reciprocal cells 3x 3x 3

 FEWALD executed in parallel
    FEWALD:  cpu time    0.0010: real time    0.0020


----------------------------------------- Iteration    1(   1)  ---------------------------------------


    POTLOK:  cpu time    0.0040: real time    0.0054
    SETDIJ:  cpu time    0.0070: real time    0.0070
     EDDAV:  cpu time    0.7439: real time    0.7439
       DOS:  cpu time    0.0010: real time    0.0011
    --------------------------------------------
      LOOP:  cpu time    0.7609: real time    0.7742

 eigenvalue-minimisations  :  4096
 total energy-change (2. order) :-0.4509960E+01  (-0.7971824E+03)
 number of electron      16.0000000 magnetization       2.0000000
 augmentation part       16.0000000 magnetization       2.0000000

 Free energy of the ion-electron system (eV)
  ---------------------------------------------------
  alpha Z        PSCENC =       118.17524546
  Ewald energy   TEWEN  =     -1172.68111701
  -Hartree energ DENC   =      -227.55063011
  -exchange      EXHF   =         0.00000000
  -V(xc)+E(xc)   XCENC  =         7.90834731
  PAW double counting   =      1109.45345578    -1124.86183816
  entropy T*S    EENTRO =        -0.00537833
  eigenvalues    EBANDS =        96.42809275
  atomic energy  EATOM  =      1188.62386280
  Solvation  Ediel_sol  =         0.00000000
  ---------------------------------------------------
  free energy    TOTEN  =        -4.50995951 eV

  energy without entropy =       -4.50458118  energy(sigma->0) =       -4.50816673


--------------------------------------------------------------------------------------------------------




----------------------------------------- Iteration    1(   2)  ---------------------------------------


     EDDAV:  cpu time    1.2528: real time    1.2544
       DOS:  cpu time    0.0010: real time    0.0010
    --------------------------------------------
      LOOP:  cpu time    1.2558: real time    1.2689

 eigenvalue-minimisations  :  5664
 total energy-change (2. order) :-0.1399669E+02  (-0.1379697E+02)
 number of electron      16.0000000 magnetization       2.0000000
 augmentation part       16.0000000 magnetization       2.0000000

 Free energy of the ion-electron system (eV)
  ---------------------------------------------------
  alpha Z        PSCENC =       118.17524546
  Ewald energy   TEWEN  =     -1172.68111701
  -Hartree energ DENC   =      -227.55063011
  -exchange      EXHF   =         0.00000000
  -V(xc)+E(xc)   XCENC  =         7.90834731
  PAW double counting   =      1109.45345578    -1124.86183816
  entropy T*S    EENTRO =         0.00613619
  eigenvalues    EBANDS =        82.41988324
  atomic energy  EATOM  =      1188.62386280
  Solvation  Ediel_sol  =         0.00000000
  ---------------------------------------------------
  free energy    TOTEN  =       -18.50665450 eV

  energy without entropy =      -18.51279068  energy(sigma->0) =      -18.50869989


--------------------------------------------------------------------------------------------------------




----------------------------------------- Iteration    1(   3)  ---------------------------------------


     EDDAV:  cpu time    0.9009: real time    0.9016
       DOS:  cpu time    0.0010: real time    0.0009
    --------------------------------------------
      LOOP:  cpu time    0.9039: real time    0.9146

 eigenvalue-minimisations  :  4512
 total energy-change (2. order) :-0.1621885E-01  (-0.1620785E-01)
 number of electron      16.0000000 magnetization       2.0000000
 augmentation part       16.0000000 magnetization       2.0000000

 Free energy of the ion-electron system (eV)
  ---------------------------------------------------
  alpha Z        PSCENC =       118.17524546
  Ewald energy   TEWEN  =     -1172.68111701
  -Hartree energ DENC   =      -227.55063011
  -exchange      EXHF   =         0.00000000
  -V(xc)+E(xc)   XCENC  =         7.90834731
  PAW double counting   =      1109.45345578    -1124.86183816
  entropy T*S    EENTRO =         0.00642619
  eigenvalues    EBANDS =        82.40337439
  atomic energy  EATOM  =      1188.62386280
  Solvation  Ediel_sol  =         0.00000000
  ---------------------------------------------------
  free energy    TOTEN  =       -18.52287334 eV

  energy without entropy =      -18.52929954  energy(sigma->0) =      -18.52501541


--------------------------------------------------------------------------------------------------------




----------------------------------------- Iteration    1(   4)  ---------------------------------------


     EDDAV:  cpu time    1.9157: real time    1.9163
       DOS:  cpu time    0.0010: real time    0.0009
    --------------------------------------------
      LOOP:  cpu time    1.9167: real time    1.9222

 eigenvalue-minimisations  :  7104
 total energy-change (2. order) :-0.1082105E-04  (-0.1082105E-04)
 number of electron      16.0000000 magnetization       2.0000000
 augmentation part       16.0000000 magnetization       2.0000000

 Free energy of the ion-electron system (eV)
  ---------------------------------------------------
  alpha Z        PSCENC =       118.17524546
  Ewald energy   TEWEN  =     -1172.68111701
  -Hartree energ DENC   =      -227.55063011
  -exchange      EXHF   =         0.00000000
  -V(xc)+E(xc)   XCENC  =         7.90834731
  PAW double counting   =      1109.45345578    -1124.86183816
  entropy T*S    EENTRO =         0.00642656
  eigenvalues    EBANDS =        82.40336320
  atomic energy  EATOM  =      1188.62386280
  Solvation  Ediel_sol  =         0.00000000
  ---------------------------------------------------
  free energy    TOTEN  =       -18.52288417 eV

  energy without entropy =      -18.52931073  energy(sigma->0) =      -18.52502635


--------------------------------------------------------------------------------------------------------




----------------------------------------- Iteration    1(   5)  ---------------------------------------


     EDDAV:  cpu time    0.9399: real time    0.9412
       DOS:  cpu time    0.0010: real time    0.0010
    CHARGE:  cpu time    0.0060: real time    0.0057
    MIXING:  cpu time    0.0000: real time    0.0004
    --------------------------------------------
      LOOP:  cpu time    0.9479: real time    1.0795

 eigenvalue-minimisations  :  4576
 total energy-change (2. order) : 0.6184564E-09  (-0.9086907E-10)
 number of electron      16.0000067 magnetization       2.2533859
 augmentation part        7.1436556 magnetization       1.6475094

 Broyden mixing:
  rms(total) = 0.15553E+01    rms(broyden)= 0.15545E+01
  rms(prec ) = 0.37344E+01
  weight for this iteration     100.00

 Free energy of the ion-electron system (eV)
  ---------------------------------------------------
  alpha Z        PSCENC =       118.17524546
  Ewald energy   TEWEN  =     -1172.68111701
  -Hartree energ DENC   =      -227.55063011
  -exchange      EXHF   =         0.00000000
  -V(xc)+E(xc)   XCENC  =         7.90834731
  PAW double counting   =      1109.45345578    -1124.86183816
  entropy T*S    EENTRO =         0.00642656
  eigenvalues    EBANDS =        82.40336320
  atomic energy  EATOM  =      1188.62386280
  Solvation  Ediel_sol  =         0.00000000
  ---------------------------------------------------
  free energy    TOTEN  =       -18.52288416 eV

  energy without entropy =      -18.52931073  energy(sigma->0) =      -18.52502635


--------------------------------------------------------------------------------------------------------




----------------------------------------- Iteration    1(   6)  ---------------------------------------


    POTLOK:  cpu time    0.0030: real time    0.0037
    SETDIJ:  cpu time    0.0070: real time    0.0071
     EDDAV:  cpu time    1.0808: real time    1.0811
       DOS:  cpu time    0.0010: real time    0.0010
    CHARGE:  cpu time    0.0060: real time    0.0055
    MIXING:  cpu time    0.0000: real time    0.0004
    --------------------------------------------
      LOOP:  cpu time    1.0988: real time    1.1036

 eigenvalue-minimisations  :  5120
 total energy-change (2. order) : 0.2182892E+01  (-0.3319764E+01)
 number of electron      16.0000089 magnetization       3.5425493
 augmentation part        8.6304397 magnetization       2.8496146

 Broyden mixing:
  rms(total) = 0.96227E+00    rms(broyden)= 0.96182E+00
  rms(prec ) = 0.12146E+01
  weight for this iteration     100.00

 eigenvalues of (default mixing * dielectric matrix)
  average eigenvalue GAMMA=   0.4823
  0.4823

 Free energy of the ion-electron system (eV)
  ---------------------------------------------------
  alpha Z        PSCENC =       118.17524546
  Ewald energy   TEWEN  =     -1172.68111701
  -Hartree energ DENC   =      -191.97220614
  -exchange      EXHF   =         0.00000000
  -V(xc)+E(xc)   XCENC  =         6.53637917
  PAW double counting   =      1193.91051212    -1204.28634888
  entropy T*S    EENTRO =        -0.02388916
  eigenvalues    EBANDS =        45.37756901
  atomic energy  EATOM  =      1188.62386280
  Solvation  Ediel_sol  =         0.00000000
  ---------------------------------------------------
  free energy    TOTEN  =       -16.33999263 eV

  energy without entropy =      -16.31610347  energy(sigma->0) =      -16.33202958


--------------------------------------------------------------------------------------------------------




----------------------------------------- Iteration    1(   7)  ---------------------------------------


    POTLOK:  cpu time    0.0030: real time    0.0037
    SETDIJ:  cpu time    0.0070: real time    0.0070
     EDDAV:  cpu time    0.9049: real time    0.9834
       DOS:  cpu time    0.0010: real time    0.0009
    CHARGE:  cpu time    0.0050: real time    0.0055
    MIXING:  cpu time    0.0010: real time    0.0003
    --------------------------------------------
      LOOP:  cpu time    0.9229: real time    1.0136

 eigenvalue-minimisations  :  4608
 total energy-change (2. order) :-0.9819747E-01  (-0.2453113E+00)
 number of electron      16.0000082 magnetization       4.3749986
 augmentation part        8.2813676 magnetization       3.6038924

 Broyden mixing:
  rms(total) = 0.45536E+00    rms(broyden)= 0.45533E+00
  rms(prec ) = 0.49455E+00
  weight for this iteration     100.00

 eigenvalues of (default mixing * dielectric matrix)
  average eigenvalue GAMMA=   0.8745
  1.0158  0.7333

 Free energy of the ion-electron system (eV)
  ---------------------------------------------------
  alpha Z        PSCENC =       118.17524546
  Ewald energy   TEWEN  =     -1172.68111701
  -Hartree energ DENC   =      -197.98507881
  -exchange      EXHF   =         0.00000000
  -V(xc)+E(xc)   XCENC  =         7.75245423
  PAW double counting   =      1260.24065974    -1274.37494017
  entropy T*S    EENTRO =        -0.02059880
  eigenvalues    EBANDS =        53.83132247
  atomic energy  EATOM  =      1188.62386280
  Solvation  Ediel_sol  =         0.00000000
  ---------------------------------------------------
  free energy    TOTEN  =       -16.43819010 eV

  energy without entropy =      -16.41759130  energy(sigma->0) =      -16.43132383


--------------------------------------------------------------------------------------------------------




----------------------------------------- Iteration    1(   8)  ---------------------------------------


    POTLOK:  cpu time    0.0040: real time    0.0042
    SETDIJ:  cpu time    0.0070: real time    0.0070
     EDDAV:  cpu time    1.4168: real time    1.4181
       DOS:  cpu time    0.0010: real time    0.0008
    CHARGE:  cpu time    0.0050: real time    0.0055
    MIXING:  cpu time    0.0000: real time    0.0002
    --------------------------------------------
      LOOP:  cpu time    1.4348: real time    1.4490

 eigenvalue-minimisations  :  6144
 total energy-change (2. order) :-0.6852955E-01  (-0.1755583E-01)
 number of electron      16.0000083 magnetization       4.4006441
 augmentation part        8.2728203 magnetization       3.6811147

 Broyden mixing:
  rms(total) = 0.23699E+00    rms(broyden)= 0.23694E+00
  rms(prec ) = 0.28028E+00
  weight for this iteration     100.00

 eigenvalues of (default mixing * dielectric matrix)
  average eigenvalue GAMMA=   0.9779
  1.6161  0.6589  0.6589

 Free energy of the ion-electron system (eV)
  ---------------------------------------------------
  alpha Z        PSCENC =       118.17524546
  Ewald energy   TEWEN  =     -1172.68111701
  -Hartree energ DENC   =      -196.59658176
  -exchange      EXHF   =         0.00000000
  -V(xc)+E(xc)   XCENC  =         8.47541838
  PAW double counting   =      1319.26264170    -1335.15702924
  entropy T*S    EENTRO =        -0.01247151
  eigenvalues    EBANDS =        53.40331153
  atomic energy  EATOM  =      1188.62386280
  Solvation  Ediel_sol  =         0.00000000
  ---------------------------------------------------
  free energy    TOTEN  =       -16.50671965 eV

  energy without entropy =      -16.49424814  energy(sigma->0) =      -16.50256248


--------------------------------------------------------------------------------------------------------




----------------------------------------- Iteration    1(   9)  ---------------------------------------


    POTLOK:  cpu time    0.0040: real time    0.0037
    SETDIJ:  cpu time    0.0070: real time    0.0071
     EDDAV:  cpu time    1.2048: real time    1.2054
       DOS:  cpu time    0.0010: real time    0.0009
    CHARGE:  cpu time    0.0050: real time    0.0055
    MIXING:  cpu time    0.0000: real time    0.0003
    --------------------------------------------
      LOOP:  cpu time    1.2238: real time    1.2352

 eigenvalue-minimisations  :  5504
 total energy-change (2. order) : 0.1058393E-01  (-0.1072686E-02)
 number of electron      16.0000083 magnetization       4.0795196
 augmentation part        8.2820721 magnetization       3.3651432

 Broyden mixing:
  rms(total) = 0.12907E+00    rms(broyden)= 0.12904E+00
  rms(prec ) = 0.15224E+00
  weight for this iteration     100.00

 eigenvalues of (default mixing * dielectric matrix)
  average eigenvalue GAMMA=   1.3238
  2.4521  1.4033  0.8089  0.6308

 Free energy of the ion-electron system (eV)
  ---------------------------------------------------
  alpha Z        PSCENC =       118.17524546
  Ewald energy   TEWEN  =     -1172.68111701
  -Hartree energ DENC   =      -195.33313133
  -exchange      EXHF   =         0.00000000
  -V(xc)+E(xc)   XCENC  =         8.51921932
  PAW double counting   =      1363.70258497    -1380.70613574
  entropy T*S    EENTRO =        -0.01511529
  eigenvalues    EBANDS =        53.21845110
  atomic energy  EATOM  =      1188.62386280
  Solvation  Ediel_sol  =         0.00000000
  ---------------------------------------------------
  free energy    TOTEN  =       -16.49613572 eV

  energy without entropy =      -16.48102043  energy(sigma->0) =      -16.49109729


--------------------------------------------------------------------------------------------------------




----------------------------------------- Iteration    1(  10)  ---------------------------------------


    POTLOK:  cpu time    0.0030: real time    0.0037
    SETDIJ:  cpu time    0.0070: real time    0.0071
     EDDAV:  cpu time    1.0788: real time    1.0793
       DOS:  cpu time    0.0010: real time    0.0009
    CHARGE:  cpu time    0.0060: real time    0.0055
    MIXING:  cpu time    0.0000: real time    0.0003
    --------------------------------------------
      LOOP:  cpu time    1.0968: real time    1.1085

 eigenvalue-minimisations  :  5120
 total energy-change (2. order) : 0.3097540E-02  (-0.3203355E-02)
 number of electron      16.0000083 magnetization       4.2694657
 augmentation part        8.2934483 magnetization       3.5357999

 Broyden mixing:
  rms(total) = 0.73595E-01    rms(broyden)= 0.73592E-01
  rms(prec ) = 0.73758E-01
  weight for this iteration     100.00

 eigenvalues of (default mixing * dielectric matrix)
  average eigenvalue GAMMA=   1.1828
  2.5222  1.0799  0.9438  0.7288  0.6394

 Free energy of the ion-electron system (eV)
  ---------------------------------------------------
  alpha Z        PSCENC =       118.17524546
  Ewald energy   TEWEN  =     -1172.68111701
  -Hartree energ DENC   =      -193.83911768
  -exchange      EXHF   =         0.00000000
  -V(xc)+E(xc)   XCENC  =         8.16663584
  PAW double counting   =      1414.56846738    -1432.58494826
  entropy T*S    EENTRO =        -0.01096402
  eigenvalues    EBANDS =        53.08889731
  atomic energy  EATOM  =      1188.62386280
  Solvation  Ediel_sol  =         0.00000000
  ---------------------------------------------------
  free energy    TOTEN  =       -16.49303818 eV

  energy without entropy =      -16.48207416  energy(sigma->0) =      -16.48938351


--------------------------------------------------------------------------------------------------------




----------------------------------------- Iteration    1(  11)  ---------------------------------------


    POTLOK:  cpu time    0.0030: real time    0.0037
    SETDIJ:  cpu time    0.0080: real time    0.0070
     EDDAV:  cpu time    1.1208: real time    1.1215
       DOS:  cpu time    0.0010: real time    0.0009
    CHARGE:  cpu time    0.0050: real time    0.0055
    MIXING:  cpu time    0.0010: real time    0.0003
    --------------------------------------------
      LOOP:  cpu time    1.1398: real time    1.1516

 eigenvalue-minimisations  :  5248
 total energy-change (2. order) :-0.3659237E-02  (-0.8079172E-03)
 number of electron      16.0000083 magnetization       4.2338983
 augmentation part        8.2923972 magnetization       3.5196913

 Broyden mixing:
  rms(total) = 0.17047E-01    rms(broyden)= 0.17045E-01
  rms(prec ) = 0.17681E-01
  weight for this iteration     100.00

 eigenvalues of (default mixing * dielectric matrix)
  average eigenvalue GAMMA=   1.1086
  2.3333  1.2824  1.0115  0.7104  0.7104  0.6034

 Free energy of the ion-electron system (eV)
  ---------------------------------------------------
  alpha Z        PSCENC =       118.17524546
  Ewald energy   TEWEN  =     -1172.68111701
  -Hartree energ DENC   =      -193.97642198
  -exchange      EXHF   =         0.00000000
  -V(xc)+E(xc)   XCENC  =         8.33739800
  PAW double counting   =      1408.73362280    -1426.64075440
  entropy T*S    EENTRO =        -0.01172356
  eigenvalues    EBANDS =        52.94319047
  atomic energy  EATOM  =      1188.62386280
  Solvation  Ediel_sol  =         0.00000000
  ---------------------------------------------------
  free energy    TOTEN  =       -16.49669742 eV

  energy without entropy =      -16.48497386  energy(sigma->0) =      -16.49278957


--------------------------------------------------------------------------------------------------------




----------------------------------------- Iteration    1(  12)  ---------------------------------------


    POTLOK:  cpu time    0.0030: real time    0.0037
    SETDIJ:  cpu time    0.0070: real time    0.0070
     EDDAV:  cpu time    0.8729: real time    0.8729
       DOS:  cpu time    0.0010: real time    0.0009
    CHARGE:  cpu time    0.0060: real time    0.0054
    MIXING:  cpu time    0.0000: real time    0.0003
    --------------------------------------------
      LOOP:  cpu time    0.8909: real time    0.9042

 eigenvalue-minimisations  :  4480
 total energy-change (2. order) :-0.1840518E-03  (-0.1935737E-04)
 number of electron      16.0000083 magnetization       4.2322649
 augmentation part        8.2933213 magnetization       3.5172918

 Broyden mixing:
  rms(total) = 0.48585E-02    rms(broyden)= 0.48539E-02
  rms(prec ) = 0.61356E-02
  weight for this iteration     100.00

 eigenvalues of (default mixing * dielectric matrix)
  average eigenvalue GAMMA=   1.0701
  2.3088  1.1579  1.1579  0.7723  0.7723  0.6394  0.6818

 Free energy of the ion-electron system (eV)
  ---------------------------------------------------
  alpha Z        PSCENC =       118.17524546
  Ewald energy   TEWEN  =     -1172.68111701
  -Hartree energ DENC   =      -193.99257984
  -exchange      EXHF   =         0.00000000
  -V(xc)+E(xc)   XCENC  =         8.30638775
  PAW double counting   =      1407.25465689    -1425.10521056
  entropy T*S    EENTRO =        -0.01115972
  eigenvalues    EBANDS =        52.93303276
  atomic energy  EATOM  =      1188.62386280
  Solvation  Ediel_sol  =         0.00000000
  ---------------------------------------------------
  free energy    TOTEN  =       -16.49688147 eV

  energy without entropy =      -16.48572175  energy(sigma->0) =      -16.49316157


--------------------------------------------------------------------------------------------------------




----------------------------------------- Iteration    1(  13)  ---------------------------------------


    POTLOK:  cpu time    0.0030: real time    0.0036
    SETDIJ:  cpu time    0.0060: real time    0.0071
     EDDAV:  cpu time    0.8969: real time    0.8965
       DOS:  cpu time    0.0010: real time    0.0009
    --------------------------------------------
      LOOP:  cpu time    0.9079: real time    0.9127

 eigenvalue-minimisations  :  3968
 total energy-change (2. order) :-0.2766649E-05  (-0.3113342E-05)
 number of electron      16.0000083 magnetization       4.2322649
 augmentation part        8.2933213 magnetization       3.5172918

 Free energy of the ion-electron system (eV)
  ---------------------------------------------------
  alpha Z        PSCENC =       118.17524546
  Ewald energy   TEWEN  =     -1172.68111701
  -Hartree energ DENC   =      -193.97991384
  -exchange      EXHF   =         0.00000000
  -V(xc)+E(xc)   XCENC  =         8.30616971
  PAW double counting   =      1407.49375327    -1425.33916498
  entropy T*S    EENTRO =        -0.01114260
  eigenvalues    EBANDS =        52.91542296
  atomic energy  EATOM  =      1188.62386280
  Solvation  Ediel_sol  =         0.00000000
  ---------------------------------------------------
  free energy    TOTEN  =       -16.49688424 eV

  energy without entropy =      -16.48574163  energy(sigma->0) =      -16.49317004


--------------------------------------------------------------------------------------------------------




 average (electrostatic) potential at core
  the test charge radii are     1.0103
  (the norm of the test charge is              1.0000)
       1 -43.6589       2 -43.6614
 
 
 
 E-fermi :   5.3307     XC(G=0): -12.9601     alpha+bet :-13.2519


 spin component 1

 k-point     1 :       0.1250    0.1250    0.1250
  band No.  band energies     occupation 
      1      -1.7952      1.00000
      2       1.2304      1.00000
      3       1.2304      1.00000
      4       3.0624      1.00000
      5       3.0624      1.00000
      6       3.8336      1.00000
      7       4.3615      1.00000
      8       4.3615      1.00000
      9       4.3883      1.00000
     10       5.3544      0.40056
     11       5.3544      0.40056
     12      13.9503      0.00000
     13      13.9503      0.00000
     14      15.0584      0.00000
     15      23.5117      0.00000
     16      23.5117      0.00000
     17      26.5969      0.00000
     18      26.5969      0.00000
     19      28.2999      0.00000
     20      30.2996      0.00000
     21      31.1482      0.00000
     22      35.9483      0.00000
     23      35.9483      0.00000
     24      36.9741      0.00000
     25      36.9741      0.00000
     26      40.3552      0.00000
     27      42.2474      0.00000
     28      44.1396      0.00000
     29      44.1396      0.00000
     30      47.5356      0.00000
     31      49.4159      0.00000
     32      49.4159      0.00000

 k-point     2 :       0.3750    0.1250    0.1250
  band No.  band energies     occupation 
      1       0.1983      1.00000
      2       1.6722      1.00000
      3       1.9778      1.00000
      4       2.7837      1.00000
      5       2.9925      1.00000
      6       3.3482      1.00000
      7       3.9552      1.00000
      8       4.2883      1.00000
      9       4.6284      1.00000
     10       4.9601      1.01247
     11       5.2012      0.94039
     12       8.1182     -0.00000
     13      17.0201      0.00000
     14      17.6216      0.00000
     15      21.2649      0.00000
     16      22.2095      0.00000
     17      25.1523      0.00000
     18      26.6295      0.00000
     19      28.7191      0.00000
     20      28.8993      0.00000
     21      32.6326      0.00000
     22      34.1797      0.00000
     23      37.0340      0.00000
     24      37.2333      0.00000
     25      40.4715      0.00000
     26      42.5693      0.00000
     27      43.7910      0.00000
     28      45.1192      0.00000
     29      46.0079      0.00000
     30      48.0114      0.00000
     31      50.7076      0.00000
     32      51.8869      0.00000

 k-point     3 :      -0.3750    0.1250    0.1250
  band No.  band energies     occupation 
      1       0.1983      1.00000
      2       1.6722      1.00000
      3       1.9778      1.00000
      4       2.7837      1.00000
      5       2.9925      1.00000
      6       3.3482      1.00000
      7       3.9552      1.00000
      8       4.2883      1.00000
      9       4.6284      1.00000
     10       4.9601      1.01247
     11       5.2012      0.94039
     12       8.1182     -0.00000
     13      17.0201      0.00000
     14      17.6216      0.00000
     15      21.2649      0.00000
     16      22.2095      0.00000
     17      25.1523      0.00000
     18      26.6295      0.00000
     19      28.7191      0.00000
     20      28.8993      0.00000
     21      32.6326      0.00000
     22      34.1797      0.00000
     23      37.0340      0.00000
     24      37.2333      0.00000
     25      40.4715      0.00000
     26      42.5693      0.00000
     27      43.7910      0.00000
     28      45.1192      0.00000
     29      46.0079      0.00000
     30      48.0114      0.00000
     31      50.7076      0.00000
     32      51.8869      0.00000

 k-point     4 :      -0.1250    0.1250    0.1250
  band No.  band energies     occupation 
      1      -1.7952      1.00000
      2       1.2304      1.00000
      3       1.2304      1.00000
      4       3.0624      1.00000
      5       3.0624      1.00000
      6       3.8336      1.00000
      7       4.3615      1.00000
      8       4.3615      1.00000
      9       4.3883      1.00000
     10       5.3544      0.40056
     11       5.3544      0.40056
     12      13.9503      0.00000
     13      13.9503      0.00000
     14      15.0584      0.00000
     15      23.5117      0.00000
     16      23.5117      0.00000
     17      26.5969      0.00000
     18      26.5969      0.00000
     19      28.2999      0.00000
     20      30.2996      0.00000
     21      31.1482      0.00000
     22      35.9483      0.00000
     23      35.9484      0.00000
     24      36.9741      0.00000
     25      36.9741      0.00000
     26      40.3552      0.00000
     27      42.2474      0.00000
     28      44.1396      0.00000
     29      44.1396      0.00000
     30      47.5356      0.00000
     31      49.4159      0.00000
     32      49.4159      0.00000

 k-point     5 :       0.1250    0.3750    0.1250
  band No.  band energies     occupation 
      1       0.1983      1.00000
      2       1.6722      1.00000
      3       1.9778      1.00000
      4       2.7837      1.00000
      5       2.9925      1.00000
      6       3.3482      1.00000
      7       3.9552      1.00000
      8       4.2883      1.00000
      9       4.6284      1.00000
     10       4.9601      1.01247
     11       5.2012      0.94039
     12       8.1182     -0.00000
     13      17.0201      0.00000
     14      17.6216      0.00000
     15      21.2649      0.00000
     16      22.2095      0.00000
     17      25.1523      0.00000
     18      26.6295      0.00000
     19      28.7191      0.00000
     20      28.8993      0.00000
     21      32.6326      0.00000
     22      34.1797      0.00000
     23      37.0340      0.00000
     24      37.2333      0.00000
     25      40.4715      0.00000
     26      42.5693      0.00000
     27      43.7910      0.00000
     28      45.1192      0.00000
     29      46.0079      0.00000
     30      48.0114      0.00000
     31      50.7076      0.00000
     32      51.8869      0.00000

 k-point     6 :       0.3750    0.3750    0.1250
  band No.  band energies     occupation 
      1       0.9086      1.00000
      2       1.2791      1.00000
      3       2.3339      1.00000
      4       2.4922      1.00000
      5       3.2003      1.00000
      6       3.6208      1.00000
      7       4.3459      1.00000
      8       4.4504      1.00000
      9       4.5701      1.00000
     10       5.3502      0.41806
     11       6.2015     -0.00000
     12       8.6681     -0.00000
     13      12.7743      0.00000
     14      15.7511      0.00000
     15      19.3246      0.00000
     16      22.5819      0.00000
     17      24.1991      0.00000
     18      25.7048      0.00000
     19      30.0028      0.00000
     20      30.8732      0.00000
     21      34.2789      0.00000
     22      34.6729      0.00000
     23      37.0383      0.00000
     24      39.8874      0.00000
     25      39.9485      0.00000
     26      41.0372      0.00000
     27      47.1928      0.00000
     28      49.1216      0.00000
     29      49.9226      0.00000
     30      50.5413      0.00000
     31      51.8740      0.00000
     32      52.8762      0.00000

 k-point     7 :      -0.3750    0.3750    0.1250
  band No.  band energies     occupation 
      1       0.9086      1.00000
      2       1.2791      1.00000
      3       2.3339      1.00000
      4       2.4922      1.00000
      5       3.2003      1.00000
      6       3.6208      1.00000
      7       4.3459      1.00000
      8       4.4504      1.00000
      9       4.5701      1.00000
     10       5.3502      0.41806
     11       6.2015     -0.00000
     12       8.6681     -0.00000
     13      12.7743      0.00000
     14      15.7511      0.00000
     15      19.3246      0.00000
     16      22.5819      0.00000
     17      24.1991      0.00000
     18      25.7048      0.00000
     19      30.0028      0.00000
     20      30.8732      0.00000
     21      34.2789      0.00000
     22      34.6729      0.00000
     23      37.0383      0.00000
     24      39.8874      0.00000
     25      39.9485      0.00000
     26      41.0372      0.00000
     27      47.1928      0.00000
     28      49.1216      0.00000
     29      49.9226      0.00000
     30      50.5413      0.00000
     31      51.8740      0.00000
     32      52.8762      0.00000

 k-point     8 :      -0.1250    0.3750    0.1250
  band No.  band energies     occupation 
      1       0.1983      1.00000
      2       1.6722      1.00000
      3       1.9778      1.00000
      4       2.7837      1.00000
      5       2.9925      1.00000
      6       3.3482      1.00000
      7       3.9552      1.00000
      8       4.2883      1.00000
      9       4.6284      1.00000
     10       4.9601      1.01247
     11       5.2012      0.94039
     12       8.1182     -0.00000
     13      17.0201      0.00000
     14      17.6216      0.00000
     15      21.2649      0.00000
     16      22.2095      0.00000
     17      25.1523      0.00000
     18      26.6295      0.00000
     19      28.7191      0.00000
     20      28.8993      0.00000
     21      32.6326      0.00000
     22      34.1797      0.00000
     23      37.0340      0.00000
     24      37.2333      0.00000
     25      40.4715      0.00000
     26      42.5693      0.00000
     27      43.7910      0.00000
     28      45.1192      0.00000
     29      46.0079      0.00000
     30      48.0114      0.00000
     31      50.7076      0.00000
     32      51.8869      0.00000

 k-point     9 :       0.1250   -0.3750    0.1250
  band No.  band energies     occupation 
      1       0.1983      1.00000
      2       1.6722      1.00000
      3       1.9778      1.00000
      4       2.7837      1.00000
      5       2.9925      1.00000
      6       3.3482      1.00000
      7       3.9552      1.00000
      8       4.2883      1.00000
      9       4.6284      1.00000
     10       4.9601      1.01247
     11       5.2012      0.94039
     12       8.1182     -0.00000
     13      17.0201      0.00000
     14      17.6216      0.00000
     15      21.2649      0.00000
     16      22.2095      0.00000
     17      25.1523      0.00000
     18      26.6295      0.00000
     19      28.7191      0.00000
     20      28.8993      0.00000
     21      32.6326      0.00000
     22      34.1797      0.00000
     23      37.0340      0.00000
     24      37.2333      0.00000
     25      40.4715      0.00000
     26      42.5693      0.00000
     27      43.7910      0.00000
     28      45.1192      0.00000
     29      46.0079      0.00000
     30      48.0114      0.00000
     31      50.7076      0.00000
     32      51.8869      0.00000

 k-point    10 :       0.3750   -0.3750    0.1250
  band No.  band energies     occupation 
      1       0.9086      1.00000
      2       1.2791      1.00000
      3       2.3339      1.00000
      4       2.4922      1.00000
      5       3.2003      1.00000
      6       3.6208      1.00000
      7       4.3459      1.00000
      8       4.4504      1.00000
      9       4.5701      1.00000
     10       5.3502      0.41806
     11       6.2015     -0.00000
     12       8.6681     -0.00000
     13      12.7743      0.00000
     14      15.7511      0.00000
     15      19.3246      0.00000
     16      22.5819      0.00000
     17      24.1991      0.00000
     18      25.7048      0.00000
     19      30.0028      0.00000
     20      30.8732      0.00000
     21      34.2789      0.00000
     22      34.6729      0.00000
     23      37.0383      0.00000
     24      39.8874      0.00000
     25      39.9485      0.00000
     26      41.0372      0.00000
     27      47.1928      0.00000
     28      49.1216      0.00000
     29      49.9226      0.00000
     30      50.5413      0.00000
     31      51.8740      0.00000
     32      52.8762      0.00000

 k-point    11 :      -0.3750   -0.3750    0.1250
  band No.  band energies     occupation 
      1       0.9086      1.00000
      2       1.2791      1.00000
      3       2.3339      1.00000
      4       2.4922      1.00000
      5       3.2003      1.00000
      6       3.6208      1.00000
      7       4.3459      1.00000
      8       4.4504      1.00000
      9       4.5701      1.00000
     10       5.3502      0.41806
     11       6.2015     -0.00000
     12       8.6681     -0.00000
     13      12.7743      0.00000
     14      15.7511      0.00000
     15      19.3246      0.00000
     16      22.5819      0.00000
     17      24.1991      0.00000
     18      25.7048      0.00000
     19      30.0028      0.00000
     20      30.8732      0.00000
     21      34.2789      0.00000
     22      34.6729      0.00000
     23      37.0383      0.00000
     24      39.8874      0.00000
     25      39.9485      0.00000
     26      41.0372      0.00000
     27      47.1928      0.00000
     28      49.1216      0.00000
     29      49.9226      0.00000
     30      50.5413      0.00000
     31      51.8740      0.00000
     32      52.8762      0.00000

 k-point    12 :      -0.1250   -0.3750    0.1250
  band No.  band energies     occupation 
      1       0.1983      1.00000
      2       1.6722      1.00000
      3       1.9778      1.00000
      4       2.7837      1.00000
      5       2.9925      1.00000
      6       3.3482      1.00000
      7       3.9552      1.00000
      8       4.2883      1.00000
      9       4.6284      1.00000
     10       4.9601      1.01247
     11       5.2012      0.94039
     12       8.1182     -0.00000
     13      17.0201      0.00000
     14      17.6216      0.00000
     15      21.2649      0.00000
     16      22.2095      0.00000
     17      25.1523      0.00000
     18      26.6295      0.00000
     19      28.7191      0.00000
     20      28.8993      0.00000
     21      32.6326      0.00000
     22      34.1797      0.00000
     23      37.0340      0.00000
     24      37.2333      0.00000
     25      40.4715      0.00000
     26      42.5693      0.00000
     27      43.7910      0.00000
     28      45.1192      0.00000
     29      46.0079      0.00000
     30      48.0114      0.00000
     31      50.7076      0.00000
     32      51.8869      0.00000

 k-point    13 :       0.1250   -0.1250    0.1250
  band No.  band energies     occupation 
      1      -1.7952      1.00000
      2       1.2304      1.00000
      3       1.2304      1.00000
      4       3.0624      1.00000
      5       3.0624      1.00000
      6       3.8336      1.00000
      7       4.3615      1.00000
      8       4.3615      1.00000
      9       4.3883      1.00000
     10       5.3544      0.40056
     11       5.3544      0.40056
     12      13.9503      0.00000
     13      13.9503      0.00000
     14      15.0584      0.00000
     15      23.5117      0.00000
     16      23.5117      0.00000
     17      26.5969      0.00000
     18      26.5969      0.00000
     19      28.2999      0.00000
     20      30.2996      0.00000
     21      31.1482      0.00000
     22      35.9483      0.00000
     23      35.9484      0.00000
     24      36.9741      0.00000
     25      36.9741      0.00000
     26      40.3552      0.00000
     27      42.2474      0.00000
     28      44.1396      0.00000
     29      44.1396      0.00000
     30      47.5356      0.00000
     31      49.4159      0.00000
     32      49.4159      0.00000

 k-point    14 :       0.3750   -0.1250    0.1250
  band No.  band energies     occupation 
      1       0.1983      1.00000
      2       1.6722      1.00000
      3       1.9778      1.00000
      4       2.7837      1.00000
      5       2.9925      1.00000
      6       3.3482      1.00000
      7       3.9552      1.00000
      8       4.2883      1.00000
      9       4.6284      1.00000
     10       4.9601      1.01247
     11       5.2012      0.94039
     12       8.1182     -0.00000
     13      17.0201      0.00000
     14      17.6216      0.00000
     15      21.2649      0.00000
     16      22.2095      0.00000
     17      25.1523      0.00000
     18      26.6295      0.00000
     19      28.7191      0.00000
     20      28.8993      0.00000
     21      32.6326      0.00000
     22      34.1797      0.00000
     23      37.0340      0.00000
     24      37.2333      0.00000
     25      40.4715      0.00000
     26      42.5693      0.00000
     27      43.7910      0.00000
     28      45.1192      0.00000
     29      46.0079      0.00000
     30      48.0114      0.00000
     31      50.7076      0.00000
     32      51.8869      0.00000

 k-point    15 :      -0.3750   -0.1250    0.1250
  band No.  band energies     occupation 
      1       0.1983      1.00000
      2       1.6722      1.00000
      3       1.9778      1.00000
      4       2.7837      1.00000
      5       2.9925      1.00000
      6       3.3482      1.00000
      7       3.9552      1.00000
      8       4.2883      1.00000
      9       4.6284      1.00000
     10       4.9601      1.01247
     11       5.2012      0.94039
     12       8.1182     -0.00000
     13      17.0201      0.00000
     14      17.6216      0.00000
     15      21.2649      0.00000
     16      22.2095      0.00000
     17      25.1523      0.00000
     18      26.6295      0.00000
     19      28.7191      0.00000
     20      28.8993      0.00000
     21      32.6326      0.00000
     22      34.1797      0.00000
     23      37.0340      0.00000
     24      37.2333      0.00000
     25      40.4715      0.00000
     26      42.5693      0.00000
     27      43.7910      0.00000
     28      45.1192      0.00000
     29      46.0079      0.00000
     30      48.0114      0.00000
     31      50.7076      0.00000
     32      51.8869      0.00000

 k-point    16 :      -0.1250   -0.1250    0.1250
  band No.  band energies     occupation 
      1      -1.7952      1.00000
      2       1.2304      1.00000
      3       1.2304      1.00000
      4       3.0624      1.00000
      5       3.0624      1.00000
      6       3.8336      1.00000
      7       4.3615      1.00000
      8       4.3615      1.00000
      9       4.3883      1.00000
     10       5.3544      0.40056
     11       5.3544      0.40056
     12      13.9503      0.00000
     13      13.9503      0.00000
     14      15.0584      0.00000
     15      23.5117      0.00000
     16      23.5117      0.00000
     17      26.5969      0.00000
     18      26.5969      0.00000
     19      28.2999      0.00000
     20      30.2996      0.00000
     21      31.1482      0.00000
     22      35.9483      0.00000
     23      35.9483      0.00000
     24      36.9741      0.00000
     25      36.9741      0.00000
     26      40.3552      0.00000
     27      42.2474      0.00000
     28      44.1396      0.00000
     29      44.1396      0.00000
     30      47.5356      0.00000
     31      49.4159      0.00000
     32      49.4159      0.00000

 k-point    17 :       0.1250    0.1250    0.3750
  band No.  band energies     occupation 
      1       0.1983      1.00000
      2       1.6722      1.00000
      3       1.9778      1.00000
      4       2.7837      1.00000
      5       2.9925      1.00000
      6       3.3482      1.00000
      7       3.9552      1.00000
      8       4.2883      1.00000
      9       4.6284      1.00000
     10       4.9601      1.01247
     11       5.2012      0.94039
     12       8.1182     -0.00000
     13      17.0201      0.00000
     14      17.6216      0.00000
     15      21.2649      0.00000
     16      22.2095      0.00000
     17      25.1523      0.00000
     18      26.6295      0.00000
     19      28.7191      0.00000
     20      28.8993      0.00000
     21      32.6326      0.00000
     22      34.1797      0.00000
     23      37.0340      0.00000
     24      37.2333      0.00000
     25      40.4715      0.00000
     26      42.5693      0.00000
     27      43.7910      0.00000
     28      45.1192      0.00000
     29      46.0079      0.00000
     30      48.0114      0.00000
     31      50.7076      0.00000
     32      51.8869      0.00000

 k-point    18 :       0.3750    0.1250    0.3750
  band No.  band energies     occupation 
      1       0.9086      1.00000
      2       1.2791      1.00000
      3       2.3339      1.00000
      4       2.4922      1.00000
      5       3.2003      1.00000
      6       3.6208      1.00000
      7       4.3459      1.00000
      8       4.4504      1.00000
      9       4.5701      1.00000
     10       5.3502      0.41806
     11       6.2015     -0.00000
     12       8.6681     -0.00000
     13      12.7743      0.00000
     14      15.7511      0.00000
     15      19.3246      0.00000
     16      22.5819      0.00000
     17      24.1991      0.00000
     18      25.7048      0.00000
     19      30.0028      0.00000
     20      30.8732      0.00000
     21      34.2789      0.00000
     22      34.6729      0.00000
     23      37.0383      0.00000
     24      39.8874      0.00000
     25      39.9485      0.00000
     26      41.0372      0.00000
     27      47.1928      0.00000
     28      49.1216      0.00000
     29      49.9226      0.00000
     30      50.5413      0.00000
     31      51.8740      0.00000
     32      52.8762      0.00000

 k-point    19 :      -0.3750    0.1250    0.3750
  band No.  band energies     occupation 
      1       0.9086      1.00000
      2       1.2791      1.00000
      3       2.3339      1.00000
      4       2.4922      1.00000
      5       3.2003      1.00000
      6       3.6208      1.00000
      7       4.3459      1.00000
      8       4.4504      1.00000
      9       4.5701      1.00000
     10       5.3502      0.41806
     11       6.2015     -0.00000
     12       8.6681     -0.00000
     13      12.7743      0.00000
     14      15.7511      0.00000
     15      19.3246      0.00000
     16      22.5819      0.00000
     17      24.1991      0.00000
     18      25.7048      0.00000
     19      30.0028      0.00000
     20      30.8732      0.00000
     21      34.2789      0.00000
     22      34.6729      0.00000
     23      37.0383      0.00000
     24      39.8874      0.00000
     25      39.9485      0.00000
     26      41.0372      0.00000
     27      47.1928      0.00000
     28      49.1216      0.00000
     29      49.9226      0.00000
     30      50.5413      0.00000
     31      51.8740      0.00000
     32      52.8762      0.00000

 k-point    20 :      -0.1250    0.1250    0.3750
  band No.  band energies     occupation 
      1       0.1983      1.00000
      2       1.6722      1.00000
      3       1.9778      1.00000
      4       2.7837      1.00000
      5       2.9925      1.00000
      6       3.3482      1.00000
      7       3.9552      1.00000
      8       4.2883      1.00000
      9       4.6284      1.00000
     10       4.9601      1.01247
     11       5.2012      0.94039
     12       8.1182     -0.00000
     13      17.0201      0.00000
     14      17.6216      0.00000
     15      21.2649      0.00000
     16      22.2095      0.00000
     17      25.1523      0.00000
     18      26.6295      0.00000
     19      28.7191      0.00000
     20      28.8993      0.00000
     21      32.6326      0.00000
     22      34.1797      0.00000
     23      37.0340      0.00000
     24      37.2333      0.00000
     25      40.4715      0.00000
     26      42.5693      0.00000
     27      43.7910      0.00000
     28      45.1192      0.00000
     29      46.0079      0.00000
     30      48.0114      0.00000
     31      50.7076      0.00000
     32      51.8869      0.00000

 k-point    21 :       0.1250    0.3750    0.3750
  band No.  band energies     occupation 
      1       0.9086      1.00000
      2       1.2791      1.00000
      3       2.3339      1.00000
      4       2.4922      1.00000
      5       3.2003      1.00000
      6       3.6208      1.00000
      7       4.3459      1.00000
      8       4.4504      1.00000
      9       4.5701      1.00000
     10       5.3502      0.41806
     11       6.2015     -0.00000
     12       8.6681     -0.00000
     13      12.7743      0.00000
     14      15.7511      0.00000
     15      19.3246      0.00000
     16      22.5819      0.00000
     17      24.1991      0.00000
     18      25.7048      0.00000
     19      30.0028      0.00000
     20      30.8732      0.00000
     21      34.2789      0.00000
     22      34.6729      0.00000
     23      37.0383      0.00000
     24      39.8874      0.00000
     25      39.9485      0.00000
     26      41.0372      0.00000
     27      47.1928      0.00000
     28      49.1216      0.00000
     29      49.9226      0.00000
     30      50.5413      0.00000
     31      51.8740      0.00000
     32      52.8762      0.00000

 k-point    22 :       0.3750    0.3750    0.3750
  band No.  band energies     occupation 
      1       1.8948      1.00000
      2       2.2229      1.00000
      3       2.2229      1.00000
      4       2.3826      1.00000
      5       2.5797      1.00000
      6       2.5797      1.00000
      7       4.5879      1.00000
      8       4.5879      1.00000
      9       4.6553      1.00001
     10       4.6553      1.00001
     11       8.7991     -0.00000
     12      12.3002      0.00000
     13      12.3002      0.00000
     14      14.7302      0.00000
     15      17.0684      0.00000
     16      17.0684      0.00000
     17      18.3336      0.00000
     18      21.6102      0.00000
     19      36.0930      0.00000
     20      36.0930      0.00000
     21      38.0087      0.00000
     22      40.5945      0.00000
     23      40.5945      0.00000
     24      43.0427      0.00000
     25      43.7885      0.00000
     26      45.1244      0.00000
     27      45.1244      0.00000
     28      46.8206      0.00000
     29      46.8206      0.00000
     30      47.5280      0.00000
     31      51.6430      0.00000
     32      51.6780      0.00000

 k-point    23 :      -0.3750    0.3750    0.3750
  band No.  band energies     occupation 
      1       1.8948      1.00000
      2       2.2229      1.00000
      3       2.2229      1.00000
      4       2.3826      1.00000
      5       2.5797      1.00000
      6       2.5797      1.00000
      7       4.5879      1.00000
      8       4.5879      1.00000
      9       4.6553      1.00001
     10       4.6553      1.00001
     11       8.7991     -0.00000
     12      12.3002      0.00000
     13      12.3002      0.00000
     14      14.7302      0.00000
     15      17.0684      0.00000
     16      17.0684      0.00000
     17      18.3336      0.00000
     18      21.6102      0.00000
     19      36.0930      0.00000
     20      36.0930      0.00000
     21      38.0087      0.00000
     22      40.5945      0.00000
     23      40.5945      0.00000
     24      43.0427      0.00000
     25      43.7885      0.00000
     26      45.1244      0.00000
     27      45.1244      0.00000
     28      46.8206      0.00000
     29      46.8206      0.00000
     30      47.5280      0.00000
     31      51.6430      0.00000
     32      51.6780      0.00000

 k-point    24 :      -0.1250    0.3750    0.3750
  band No.  band energies     occupation 
      1       0.9086      1.00000
      2       1.2791      1.00000
      3       2.3339      1.00000
      4       2.4922      1.00000
      5       3.2003      1.00000
      6       3.6208      1.00000
      7       4.3459      1.00000
      8       4.4504      1.00000
      9       4.5701      1.00000
     10       5.3502      0.41806
     11       6.2015     -0.00000
     12       8.6681     -0.00000
     13      12.7743      0.00000
     14      15.7511      0.00000
     15      19.3246      0.00000
     16      22.5819      0.00000
     17      24.1991      0.00000
     18      25.7048      0.00000
     19      30.0028      0.00000
     20      30.8732      0.00000
     21      34.2789      0.00000
     22      34.6729      0.00000
     23      37.0383      0.00000
     24      39.8874      0.00000
     25      39.9485      0.00000
     26      41.0372      0.00000
     27      47.1928      0.00000
     28      49.1216      0.00000
     29      49.9226      0.00000
     30      50.5413      0.00000
     31      51.8740      0.00000
     32      52.8762      0.00000

 k-point    25 :       0.1250   -0.3750    0.3750
  band No.  band energies     occupation 
      1       0.9086      1.00000
      2       1.2791      1.00000
      3       2.3339      1.00000
      4       2.4922      1.00000
      5       3.2003      1.00000
      6       3.6208      1.00000
      7       4.3459      1.00000
      8       4.4504      1.00000
      9       4.5701      1.00000
     10       5.3502      0.41806
     11       6.2015     -0.00000
     12       8.6681     -0.00000
     13      12.7743      0.00000
     14      15.7511      0.00000
     15      19.3246      0.00000
     16      22.5819      0.00000
     17      24.1991      0.00000
     18      25.7048      0.00000
     19      30.0028      0.00000
     20      30.8732      0.00000
     21      34.2789      0.00000
     22      34.6729      0.00000
     23      37.0383      0.00000
     24      39.8874      0.00000
     25      39.9485      0.00000
     26      41.0372      0.00000
     27      47.1928      0.00000
     28      49.1216      0.00000
     29      49.9226      0.00000
     30      50.5413      0.00000
     31      51.8740      0.00000
     32      52.8762      0.00000

 k-point    26 :       0.3750   -0.3750    0.3750
  band No.  band energies     occupation 
      1       1.8948      1.00000
      2       2.2229      1.00000
      3       2.2229      1.00000
      4       2.3826      1.00000
      5       2.5797      1.00000
      6       2.5797      1.00000
      7       4.5879      1.00000
      8       4.5879      1.00000
      9       4.6553      1.00001
     10       4.6553      1.00001
     11       8.7991     -0.00000
     12      12.3002      0.00000
     13      12.3002      0.00000
     14      14.7302      0.00000
     15      17.0684      0.00000
     16      17.0684      0.00000
     17      18.3336      0.00000
     18      21.6102      0.00000
     19      36.0930      0.00000
     20      36.0930      0.00000
     21      38.0087      0.00000
     22      40.5945      0.00000
     23      40.5945      0.00000
     24      43.0427      0.00000
     25      43.7885      0.00000
     26      45.1244      0.00000
     27      45.1244      0.00000
     28      46.8206      0.00000
     29      46.8206      0.00000
     30      47.5280      0.00000
     31      51.6430      0.00000
     32      51.6780      0.00000

 k-point    27 :      -0.3750   -0.3750    0.3750
  band No.  band energies     occupation 
      1       1.8948      1.00000
      2       2.2229      1.00000
      3       2.2229      1.00000
      4       2.3826      1.00000
      5       2.5797      1.00000
      6       2.5797      1.00000
      7       4.5879      1.00000
      8       4.5879      1.00000
      9       4.6553      1.00001
     10       4.6553      1.00001
     11       8.7991     -0.00000
[...]
      8       7.2362     -0.00000
      9       7.2813     -0.00000
     10       7.2813     -0.00000
     11      10.2256     -0.00000
     12      13.2719      0.00000
     13      13.2719      0.00000
     14      15.5791      0.00000
     15      17.7510      0.00000
     16      17.7510      0.00000
     17      18.9692      0.00000
     18      22.1336      0.00000
     19      36.0982      0.00000
     20      36.0982      0.00000
     21      37.7163      0.00000
     22      40.7277      0.00000
     23      40.7277      0.00000
     24      43.7297      0.00000
     25      43.9270      0.00000
     26      45.7839      0.00000
     27      45.7839      0.00000
     28      47.0340      0.00000
     29      47.0340      0.00000
     30      48.1430      0.00000
     31      51.4241      0.00000
     32      52.2380      0.00000

 k-point    28 :      -0.1250   -0.3750    0.3750
  band No.  band energies     occupation 
      1       1.7583      1.00000
      2       2.6283      1.00000
      3       3.9936      1.00000
      4       4.1542      1.00000
      5       4.7038      1.00004
      6       4.7289      1.00009
      7       6.6913     -0.00000
      8       6.9425     -0.00000
      9       7.2930     -0.00000
     10       7.5812     -0.00000
     11       8.0262     -0.00000
     12       9.8575     -0.00000
     13      13.9823      0.00000
     14      16.6455      0.00000
     15      19.8760      0.00000
     16      22.8600      0.00000
     17      24.7933      0.00000
     18      25.9927      0.00000
     19      30.4208      0.00000
     20      31.0275      0.00000
     21      34.3522      0.00000
     22      35.1949      0.00000
     23      37.5244      0.00000
     24      40.0659      0.00000
     25      40.0923      0.00000
     26      41.7938      0.00000
     27      47.5431      0.00000
     28      49.7712      0.00000
     29      50.4894      0.00000
     30      50.5192      0.00000
     31      52.4086      0.00000
     32      53.3837      0.00000

 k-point    29 :       0.1250   -0.1250    0.3750
  band No.  band energies     occupation 
      1       0.4804      1.00000
      2       2.8864      1.00000
      3       3.8620      1.00000
      4       4.6056      1.00000
      5       4.6951      1.00003
      6       5.1226      1.02885
      7       6.2723     -0.00000
      8       6.3021     -0.00000
      9       6.6948     -0.00000
     10       7.3235     -0.00000
     11       7.4983     -0.00000
     12       9.5660     -0.00000
     13      17.8008      0.00000
     14      18.2570      0.00000
     15      21.8241      0.00000
     16      22.7417      0.00000
     17      25.5538      0.00000
     18      27.0284      0.00000
     19      28.9082      0.00000
     20      29.3642      0.00000
     21      32.9922      0.00000
     22      34.6356      0.00000
     23      37.5239      0.00000
     24      37.6765      0.00000
     25      40.9145      0.00000
     26      42.9370      0.00000
     27      44.1699      0.00000
     28      45.3407      0.00000
     29      46.3638      0.00000
     30      48.7904      0.00000
     31      51.3762      0.00000
     32      52.5451      0.00000

 k-point    30 :       0.3750   -0.1250    0.3750
  band No.  band energies     occupation 
      1       1.7583      1.00000
      2       2.6283      1.00000
      3       3.9936      1.00000
      4       4.1542      1.00000
      5       4.7038      1.00004
      6       4.7289      1.00009
      7       6.6913     -0.00000
      8       6.9425     -0.00000
      9       7.2930     -0.00000
     10       7.5812     -0.00000
     11       8.0262     -0.00000
     12       9.8575     -0.00000
     13      13.9823      0.00000
     14      16.6455      0.00000
     15      19.8760      0.00000
     16      22.8600      0.00000
     17      24.7933      0.00000
     18      25.9927      0.00000
     19      30.4208      0.00000
     20      31.0275      0.00000
     21      34.3522      0.00000
     22      35.1949      0.00000
     23      37.5244      0.00000
     24      40.0659      0.00000
     25      40.0923      0.00000
     26      41.7938      0.00000
     27      47.5431      0.00000
     28      49.7712      0.00000
     29      50.4894      0.00000
     30      50.5192      0.00000
     31      52.4086      0.00000
     32      53.3837      0.00000

 k-point    31 :      -0.3750   -0.1250    0.3750
  band No.  band energies     occupation 
      1       1.7583      1.00000
      2       2.6283      1.00000
      3       3.9936      1.00000
      4       4.1542      1.00000
      5       4.7038      1.00004
      6       4.7289      1.00009
      7       6.6913     -0.00000
      8       6.9425     -0.00000
      9       7.2930     -0.00000
     10       7.5812     -0.00000
     11       8.0262     -0.00000
     12       9.8575     -0.00000
     13      13.9823      0.00000
     14      16.6455      0.00000
     15      19.8760      0.00000
     16      22.8600      0.00000
     17      24.7933      0.00000
     18      25.9927      0.00000
     19      30.4208      0.00000
     20      31.0275      0.00000
     21      34.3522      0.00000
     22      35.1949      0.00000
     23      37.5244      0.00000
     24      40.0659      0.00000
     25      40.0923      0.00000
     26      41.7938      0.00000
     27      47.5431      0.00000
     28      49.7712      0.00000
     29      50.4894      0.00000
     30      50.5192      0.00000
     31      52.4086      0.00000
     32      53.3837      0.00000

 k-point    32 :      -0.1250   -0.1250    0.3750
  band No.  band energies     occupation 
      1       0.4804      1.00000
      2       2.8864      1.00000
      3       3.8620      1.00000
      4       4.6056      1.00000
      5       4.6951      1.00003
      6       5.1226      1.02885
      7       6.2723     -0.00000
      8       6.3021     -0.00000
      9       6.6948     -0.00000
     10       7.3235     -0.00000
     11       7.4983     -0.00000
     12       9.5660     -0.00000
     13      17.8008      0.00000
     14      18.2570      0.00000
     15      21.8241      0.00000
     16      22.7417      0.00000
     17      25.5538      0.00000
     18      27.0284      0.00000
     19      28.9082      0.00000
     20      29.3642      0.00000
     21      32.9922      0.00000
     22      34.6356      0.00000
     23      37.5239      0.00000
     24      37.6765      0.00000
     25      40.9145      0.00000
     26      42.9370      0.00000
     27      44.1699      0.00000
     28      45.3407      0.00000
     29      46.3638      0.00000
     30      48.7904      0.00000
     31      51.3762      0.00000
     32      52.5451      0.00000


--------------------------------------------------------------------------------------------------------


 soft charge-density along one line, spin component           1
         0         1         2         3         4         5         6         7         8         9
 total charge-density along one line
 
 soft charge-density along one line, spin component           2
         0         1         2         3         4         5         6         7         8         9
 total charge-density along one line
 
 pseudopotential strength for first ion, spin component:           1
 -5.802  -0.000   0.000   0.000   0.000  -6.326  -0.000   0.000
 -0.000  -5.802   0.000  -0.000  -0.000  -0.000  -6.326   0.000
  0.000   0.000  -5.987   0.000   0.000   0.000   0.000  -6.506
  0.000  -0.000   0.000  -5.802   0.000   0.000  -0.000   0.000
  0.000  -0.000   0.000   0.000  -5.987   0.000  -0.000   0.000
 -6.326  -0.000   0.000   0.000   0.000  -6.809  -0.000   0.000
 -0.000  -6.326   0.000  -0.000  -0.000  -0.000  -6.809   0.000
  0.000   0.000  -6.506   0.000   0.000   0.000   0.000  -6.984
  0.000  -0.000   0.000  -6.326   0.000   0.000  -0.000   0.000
  0.000  -0.000   0.000   0.000  -6.506   0.000  -0.000   0.000
  0.000  -0.000   0.000  -0.000   0.000   0.000  -0.000   0.000
  0.000  -0.000   0.000  -0.000  -0.000   0.000  -0.000   0.000
  0.000  -0.000   0.000   0.000  -0.000   0.000  -0.000   0.000
  0.000   0.000   0.000  -0.000   0.000   0.000   0.000   0.000
 -0.000   0.000  -0.000   0.000  -0.000  -0.000   0.000  -0.000
  0.000  -0.000   0.000   0.000  -0.000   0.000  -0.000   0.000
  0.000   0.000   0.000  -0.000   0.000   0.000   0.000   0.000
 -0.000   0.000  -0.000   0.000  -0.000  -0.000   0.000  -0.000
 pseudopotential strength for first ion, spin component:           2
 -4.388   0.000  -0.000   0.000  -0.000  -4.957   0.000  -0.000
  0.000  -4.388  -0.000   0.000   0.000   0.000  -4.957  -0.000
 -0.000  -0.000  -4.142  -0.000  -0.000  -0.000  -0.000  -4.717
  0.000   0.000  -0.000  -4.388  -0.000   0.000   0.000  -0.000
 -0.000   0.000  -0.000  -0.000  -4.142  -0.000   0.000  -0.000
 -4.957   0.000  -0.000   0.000  -0.000  -5.484   0.000  -0.000
  0.000  -4.957  -0.000   0.000   0.000   0.000  -5.484  -0.000
 -0.000  -0.000  -4.717  -0.000  -0.000  -0.000  -0.000  -5.248
  0.000   0.000  -0.000  -4.957  -0.000   0.000   0.000  -0.000
 -0.000   0.000  -0.000  -0.000  -4.717  -0.000   0.000  -0.000
 -0.000   0.000   0.000   0.000   0.000  -0.000   0.000   0.000
 -0.000   0.000   0.000   0.000   0.000  -0.000   0.000  -0.000
 -0.000   0.000  -0.000  -0.000   0.000  -0.000   0.000  -0.000
 -0.000  -0.000   0.000   0.000  -0.000  -0.000  -0.000   0.000
  0.000  -0.000   0.000  -0.000   0.000   0.000  -0.000   0.000
 -0.000   0.000  -0.000  -0.000   0.000  -0.000   0.000  -0.000
 -0.000  -0.000   0.000   0.000  -0.000  -0.000  -0.000   0.000
  0.000  -0.000   0.000   0.000   0.000   0.000  -0.000   0.000
 total augmentation occupancy for first ion, spin component:           1
  2.140   0.000  -0.000  -0.000  -0.000  -1.114   0.000   0.000   0.000   0.000  -0.000   0.000  -0.000   0.000   0.000   0.000
  0.000   2.140   0.000   0.000   0.000   0.000  -1.114  -0.000  -0.000  -0.000   0.000  -0.000  -0.000  -0.000   0.000   0.000
 -0.000   0.000   3.545  -0.000  -0.000   0.000  -0.000  -2.215   0.000   0.000   0.000  -0.000  -0.000  -0.000  -0.000   0.000
 -0.000   0.000  -0.000   2.140  -0.000   0.000  -0.000   0.000  -1.114   0.000   0.000  -0.000  -0.000   0.000   0.000   0.000
 -0.000   0.000  -0.000  -0.000   3.545   0.000  -0.000   0.000   0.000  -2.215   0.000  -0.000   0.000   0.000  -0.000  -0.000
 -1.114   0.000   0.000   0.000   0.000   1.474  -0.000  -0.000  -0.000  -0.000   0.000  -0.000   0.000  -0.000  -0.000  -0.000
  0.000  -1.114  -0.000  -0.000  -0.000  -0.000   1.474   0.000   0.000   0.000   0.000   0.000  -0.000   0.000  -0.000   0.000
  0.000  -0.000  -2.215   0.000   0.000  -0.000   0.000   2.152  -0.000  -0.000  -0.000   0.000   0.000   0.000   0.000  -0.000
  0.000  -0.000   0.000  -1.114   0.000  -0.000   0.000  -0.000   1.474  -0.000   0.000  -0.000   0.000  -0.000   0.000  -0.000
  0.000  -0.000   0.000   0.000  -2.215  -0.000   0.000  -0.000  -0.000   2.152  -0.000   0.000  -0.000  -0.000   0.000   0.000
 -0.000   0.000   0.000   0.000   0.000   0.000   0.000  -0.000   0.000  -0.000   2.337  -0.264  -0.000  -0.000   0.000   0.000
  0.000  -0.000  -0.000  -0.000  -0.000  -0.000   0.000   0.000  -0.000   0.000  -0.264   0.035   0.000   0.000  -0.000  -0.000
 -0.000  -0.000  -0.000  -0.000   0.000   0.000  -0.000   0.000   0.000  -0.000  -0.000   0.000   0.282   0.000  -0.000  -0.024
  0.000  -0.000  -0.000   0.000   0.000  -0.000   0.000   0.000  -0.000  -0.000  -0.000   0.000   0.000   0.282   0.000  -0.000
  0.000   0.000  -0.000   0.000  -0.000  -0.000  -0.000   0.000   0.000   0.000   0.000  -0.000  -0.000   0.000   0.282   0.000
  0.000   0.000   0.000   0.000  -0.000  -0.000   0.000  -0.000  -0.000   0.000   0.000  -0.000  -0.024  -0.000   0.000   0.002
 -0.000   0.000   0.000  -0.000  -0.000   0.000  -0.000  -0.000   0.000   0.000   0.000  -0.000  -0.000  -0.024  -0.000   0.000
 -0.000  -0.000   0.000  -0.000   0.000   0.000   0.000  -0.000  -0.000  -0.000  -0.000   0.000   0.000  -0.000  -0.024  -0.000
 total augmentation occupancy for first ion, spin component:           2
  1.791   0.000   0.000   0.000  -0.000  -0.742  -0.000  -0.000  -0.000  -0.000  -0.000   0.000   0.000   0.000   0.000  -0.000
  0.000   1.791   0.000  -0.000   0.000  -0.000  -0.742  -0.000   0.000  -0.000   0.000  -0.000  -0.000  -0.000  -0.000   0.000
  0.000   0.000   3.082  -0.000  -0.000  -0.000  -0.000  -1.380   0.000   0.000   0.000  -0.000  -0.000  -0.000  -0.000   0.000
  0.000  -0.000  -0.000   1.791  -0.000  -0.000   0.000   0.000  -0.742   0.000   0.000  -0.000  -0.000  -0.000   0.000   0.000
 -0.000   0.000  -0.000  -0.000   3.082   0.000  -0.000   0.000   0.000  -1.380   0.000  -0.000   0.000   0.000  -0.000  -0.000
 -0.742  -0.000  -0.000  -0.000   0.000   0.064   0.000   0.000   0.000   0.000  -0.000   0.000  -0.000  -0.000   0.000   0.000
 -0.000  -0.742  -0.000   0.000  -0.000   0.000   0.064   0.000  -0.000   0.000  -0.000   0.000   0.000  -0.000  -0.000  -0.000
 -0.000  -0.000  -1.380   0.000   0.000   0.000   0.000   0.398  -0.000  -0.000  -0.000   0.000   0.000   0.000  -0.000  -0.000
 -0.000   0.000   0.000  -0.742   0.000   0.000  -0.000  -0.000   0.064  -0.000  -0.000   0.000   0.000   0.000  -0.000  -0.000
 -0.000  -0.000   0.000   0.000  -1.380   0.000   0.000  -0.000  -0.000   0.398  -0.000   0.000  -0.000  -0.000  -0.000   0.000
 -0.000   0.000   0.000   0.000   0.000  -0.000  -0.000  -0.000  -0.000  -0.000  -0.313   0.096  -0.000   0.000   0.000  -0.000
  0.000  -0.000  -0.000  -0.000  -0.000   0.000   0.000   0.000   0.000   0.000   0.096  -0.016   0.000  -0.000  -0.000  -0.000
  0.000  -0.000  -0.000  -0.000   0.000  -0.000   0.000   0.000   0.000  -0.000  -0.000   0.000  -0.040  -0.000   0.000   0.006
  0.000  -0.000  -0.000  -0.000   0.000  -0.000  -0.000   0.000   0.000  -0.000   0.000  -0.000  -0.000  -0.040  -0.000   0.000
  0.000  -0.000  -0.000   0.000  -0.000   0.000  -0.000  -0.000  -0.000  -0.000   0.000  -0.000   0.000  -0.000  -0.040  -0.000
 -0.000   0.000   0.000   0.000  -0.000   0.000  -0.000  -0.000  -0.000   0.000  -0.000  -0.000   0.006   0.000  -0.000  -0.001
 -0.000  -0.000   0.000   0.000  -0.000  -0.000   0.000  -0.000  -0.000   0.000  -0.000   0.000   0.000   0.006   0.000  -0.000
  0.000   0.000   0.000  -0.000   0.000  -0.000   0.000   0.000   0.000   0.000  -0.000   0.000  -0.000   0.000   0.006   0.000


------------------------ aborting loop because EDIFF is reached ----------------------------------------


    CHARGE:  cpu time    0.0070: real time    0.0073
    FORLOC:  cpu time    0.0000: real time    0.0001
    FORNL :  cpu time    0.0160: real time    0.0154
    STRESS:  cpu time    0.0820: real time    0.0824
    FORCOR:  cpu time    0.0030: real time    0.0031
    FORHAR:  cpu time    0.0010: real time    0.0005
    MIXING:  cpu time    0.0000: real time    0.0004
    OFIELD:  cpu time    0.0000: real time    0.0000

  FORCE on cell =-STRESS in cart. coord.  units (eV):
  Direction    XX          YY          ZZ          XY          YZ          ZX
  --------------------------------------------------------------------------------------
  Alpha Z   118.17525   118.17525   118.17525
  Ewald    -390.89368  -390.89368  -390.89368     0.00000     0.00000     0.00000
  Hartree    64.64821    64.64821    64.64821    -0.00000    -0.00000    -0.00000
  E(xc)     -79.07183   -79.07183   -79.07183    -0.00000     0.00000     0.00000
  Local     116.08824   116.08824   116.08824     0.00000     0.00000     0.00000
  n-local   -52.33558   -52.33558   -52.33558    -0.00000     0.00000     0.00000
  augment    77.50318    77.50318    77.50318     0.00000    -0.00000     0.00000
  Kinetic   144.70784   144.70784   144.70784    -0.00000     0.00000     0.00000
  Fock        0.00000     0.00000     0.00000     0.00000     0.00000     0.00000
  -------------------------------------------------------------------------------------
  Total      -1.17837    -1.17837    -1.17837    -0.00000     0.00000     0.00000
  in kB     -80.70352   -80.70387   -80.70399    -0.00001     0.00008     0.00019
  external pressure =      -80.70 kB  Pullay stress =        0.00 kB


 VOLUME and BASIS-vectors are now :
 -----------------------------------------------------------------------------
  energy-cutoff  :      450.00
  volume of cell :       23.39
      direct lattice vectors                 reciprocal lattice vectors
     2.860000000  0.000000000  0.000000000     0.349650350  0.000000000  0.000000000
     0.000000000  2.860000000  0.000000000     0.000000000  0.349650350  0.000000000
     0.000000000  0.000000000  2.860000000     0.000000000  0.000000000  0.349650350

  length of vectors
     2.860000000  2.860000000  2.860000000     0.349650350  0.349650350  0.349650350


 FORCES acting on ions
    electron-ion (+dipol)            ewald-force                    non-local-force                 convergence-correction
 -----------------------------------------------------------------------------------------------
   0.443E-07 0.605E-07 0.602E-07   0.219E-14 -.742E-15 -.130E-14   0.550E-07 0.603E-07 0.776E-07   -.849E-07 -.605E-07 -.574E-07
   0.177E-09 -.287E-07 -.244E-07   -.209E-14 0.143E-14 -.194E-15   0.218E-07 -.823E-07 -.362E-07   0.188E-07 0.630E-07 -.106E-08
 -----------------------------------------------------------------------------------------------
   0.445E-07 0.317E-07 0.358E-07   0.102E-15 0.685E-15 -.150E-14   0.768E-07 -.221E-07 0.414E-07   -.661E-07 0.251E-08 -.585E-07
 
 
 POSITION                                       TOTAL-FORCE (eV/Angst)
 -----------------------------------------------------------------------------------
      0.00000      0.00000      0.00000        -0.000000      0.000000      0.000000
      1.43000      1.43000      1.43000         0.000000     -0.000000     -0.000000
 -----------------------------------------------------------------------------------
    total drift:                                0.000000      0.000000      0.000000


--------------------------------------------------------------------------------------------------------



  FREE ENERGIE OF THE ION-ELECTRON SYSTEM (eV)
  ---------------------------------------------------
  free  energy   TOTEN  =       -16.49688424 eV

  energy  without entropy=      -16.48574163  energy(sigma->0) =      -16.49317004
 


--------------------------------------------------------------------------------------------------------


    POTLOK:  cpu time    0.0110: real time    0.0109


--------------------------------------------------------------------------------------------------------




--------------------------------------------------------------------------------------------------------


  
 reached required accuracy - stopping structural energy minimisation
     LOOP+:  cpu time   14.6388: real time   14.9865
    4ORBIT:  cpu time    0.0000: real time    0.0000

 total amount of memory used by VASP on root node    33501. kBytes
========================================================================

   base      :      30000. kBytes
   nonl-proj :       2375. kBytes
   fftplans  :         62. kBytes
   grid      :        413. kBytes
   one-center:         62. kBytes
   wavefun   :        589. kBytes
 
  
  
 General timing and accounting informations for this job:
 ========================================================
  
                  Total CPU time used (sec):       15.962
                            User time (sec):       15.128
                          System time (sec):        0.834
                         Elapsed time (sec):       16.730
  
                   Maximum memory used (kb):       75180.
                   Average memory used (kb):           0.
  
                          Minor page faults:       292595
                          Major page faults:            0
                 Voluntary context switches:         3688
