 vasp.5.4.1 24Jun15 (build May 02 2016 14:41:14) complex                        
  
 executed on           IFC91_ompi date 2025.11.12  12:26:11
 running on   32 total cores
 distrk:  each k-point on   32 cores,    1 groups
 distr:  one band on NCORES_PER_BAND=   1 cores,   32 groups


--------------------------------------------------------------------------------------------------------


 INCAR:
 POTCAR:    PAW_PBE Fe 06Sep2000                  

 ----------------------------------------------------------------------------- 
|                                                                             |
|           W    W    AA    RRRRR   N    N  II  N    N   GGGG   !!!           |
|           W    W   A  A   R    R  NN   N  II  NN   N  G    G  !!!           |
|           W    W  A    A  R    R  N N  N  II  N N  N  G       !!!           |
|           W WW W  AAAAAA  RRRRR   N  N N  II  N  N N  G  GGG   !            |
|           WW  WW  A    A  R   R   N   NN  II  N   NN  G    G                |
|           W    W  A    A  R    R  N    N  II  N    N   GGGG   !!!           |
|                                                                             |
|      For optimal performance we recommend to set                            |
|        NCORE= 4 - approx SQRT( number of cores)                             |
|      NCORE specifies how many cores store one orbital (NPAR=cpu/NCORE).     |
|      This setting can  greatly improve the performance of VASP for DFT.     |
|      The default, NPAR=number of cores might be grossly inefficient         |
|      on modern multi-core architectures or massively parallel machines.     |
|      Do your own testing !!!!                                               |
|      Unfortunately you need to use the default for GW and RPA calculations. |
|      (for HF NCORE is supported but not extensively tested yet)             |
|                                                                             |
 ----------------------------------------------------------------------------- 

 POTCAR:    PAW_PBE Fe 06Sep2000                  
   VRHFIN =Fe:  d7 s1                                                           
   LEXCH  = PE                                                                  
   EATOM  =   594.3153 eV,   43.6809 Ry                                         
                                                                                
   TITEL  = PAW_PBE Fe 06Sep2000                                                
   LULTRA =        F    use ultrasoft PP ?                                      
   IUNSCR =        1    unscreen: 0-lin 1-nonlin 2-no                           
   RPACOR =    2.000    partial core radius                                     
   POMASS =   55.847; ZVAL   =    8.000    mass and valenz                      
   RCORE  =    2.300    outmost cutoff radius                                   
   RWIGS  =    2.460; RWIGS  =    1.302    wigner-seitz radius (au A)           
   ENMAX  =  267.882; ENMIN  =  200.911 eV                                      
   RCLOC  =    1.701    cutoff for local pot                                    
   LCOR   =        T    correct aug charges                                     
   LPAW   =        T    paw PP                                                  
   EAUG   =  511.368                                                            
   DEXC   =    0.000                                                            
   RMAX   =    2.356    core radius for proj-oper                               
   RAUG   =    1.300    factor for augmentation sphere                          
   RDEP   =    2.442    radius for radial grids                                 
   RDEPT  =    1.890    core radius for aug-charge                              
                                                                                
   Atomic configuration                                                         
    9 entries                                                                   
     n  l   j            E        occ.                                          
     1  0  0.50     -6993.8440   2.0000                                         
     2  0  0.50      -814.6047   2.0000                                         
     2  1  1.50      -693.3689   6.0000                                         
     3  0  0.50       -89.4732   2.0000                                         
     3  1  1.50       -55.6373   6.0000                                         
     3  2  2.50        -3.8151   7.0000                                         
     4  0  0.50        -4.2551   1.0000                                         
     4  1  1.50        -3.4015   0.0000                                         
     4  3  2.50        -1.3606   0.0000                                         
   Description                                                                  
     l       E           TYP  RCUT    TYP  RCUT                                 
     2     -3.8151135     23  2.300                                             
     2     -5.1756961     23  2.300                                             
     0     -4.2550963     23  2.300                                             
     0      7.2035603     23  2.300                                             
     1     -2.7211652     23  2.300                                             
     1     18.4316424     23  2.300                                             
  local pseudopotential read in
  partial core-charges read in
  partial kinetic energy density read in
  atomic valenz-charges read in
  non local Contribution for L=           2  read in
    real space projection operators read in
  non local Contribution for L=           2  read in
    real space projection operators read in
  non local Contribution for L=           0  read in
    real space projection operators read in
  non local Contribution for L=           0  read in
    real space projection operators read in
  non local Contribution for L=           1  read in
    real space projection operators read in
  non local Contribution for L=           1  read in
    real space projection operators read in
    PAW grid and wavefunctions read in
 
   number of l-projection  operators is LMAX  =           6
   number of lm-projection operators is LMMAX =          18
 
  PAW_PBE Fe 06Sep2000                  :
 energy of atom  1       EATOM= -594.3153
 kinetic energy error for atom=    0.0205 (will be added to EATOM!!)
 
 
 POSCAR: BCC Fe                                  
  positions in cartesian coordinates
  No initial velocities read in
 exchange correlation table for  LEXCH =        8
   RHO(1)=    0.500       N(1)  =     2000
   RHO(2)=  100.500       N(2)  =     4000
 


--------------------------------------------------------------------------------------------------------


 ion  position               nearest neighbor table
   1  0.000  0.000  0.000-   2 2.48   2 2.48   2 2.48   2 2.48   2 2.48   2 2.48   2 2.48   2 2.48

   2  0.500  0.500  0.500-   1 2.48   1 2.48   1 2.48   1 2.48   1 2.48   1 2.48   1 2.48   1 2.48

 

IMPORTANT INFORMATION: All symmetrisations will be switched off!
NOSYMM: (Re-)initialisation of all symmetry stuff for point group C_1.

 
 
 KPOINTS: Automatic mesh                          

Automatic generation of k-mesh.
Space group operators:
 irot       det(A)        alpha          n_x          n_y          n_z        tau_x        tau_y        tau_z
    1     1.000000     0.000001     1.000000     0.000000     0.000000     0.000000     0.000000     0.000000
 
 Subroutine IBZKPT returns following result:
 ===========================================
 
 Found     32 irreducible k-points:
 
 Following reciprocal coordinates:
            Coordinates               Weight
  0.125000  0.125000  0.125000      2.000000
  0.375000  0.125000  0.125000      2.000000
 -0.375000  0.125000  0.125000      2.000000
 -0.125000  0.125000  0.125000      2.000000
  0.125000  0.375000  0.125000      2.000000
  0.375000  0.375000  0.125000      2.000000
 -0.375000  0.375000  0.125000      2.000000
 -0.125000  0.375000  0.125000      2.000000
  0.125000 -0.375000  0.125000      2.000000
  0.375000 -0.375000  0.125000      2.000000
 -0.375000 -0.375000  0.125000      2.000000
 -0.125000 -0.375000  0.125000      2.000000
  0.125000 -0.125000  0.125000      2.000000
  0.375000 -0.125000  0.125000      2.000000
 -0.375000 -0.125000  0.125000      2.000000
 -0.125000 -0.125000  0.125000      2.000000
  0.125000  0.125000  0.375000      2.000000
  0.375000  0.125000  0.375000      2.000000
 -0.375000  0.125000  0.375000      2.000000
 -0.125000  0.125000  0.375000      2.000000
  0.125000  0.375000  0.375000      2.000000
  0.375000  0.375000  0.375000      2.000000
 -0.375000  0.375000  0.375000      2.000000
 -0.125000  0.375000  0.375000      2.000000
  0.125000 -0.375000  0.375000      2.000000
  0.375000 -0.375000  0.375000      2.000000
 -0.375000 -0.375000  0.375000      2.000000
 -0.125000 -0.375000  0.375000      2.000000
  0.125000 -0.125000  0.375000      2.000000
  0.375000 -0.125000  0.375000      2.000000
 -0.375000 -0.125000  0.375000      2.000000
 -0.125000 -0.125000  0.375000      2.000000
 
 Following cartesian coordinates:
            Coordinates               Weight
  0.125000  0.125000  0.125000      2.000000
  0.375000  0.125000  0.125000      2.000000
 -0.375000  0.125000  0.125000      2.000000
 -0.125000  0.125000  0.125000      2.000000
  0.125000  0.375000  0.125000      2.000000
  0.375000  0.375000  0.125000      2.000000
 -0.375000  0.375000  0.125000      2.000000
 -0.125000  0.375000  0.125000      2.000000
  0.125000 -0.375000  0.125000      2.000000
  0.375000 -0.375000  0.125000      2.000000
 -0.375000 -0.375000  0.125000      2.000000
 -0.125000 -0.375000  0.125000      2.000000
  0.125000 -0.125000  0.125000      2.000000
  0.375000 -0.125000  0.125000      2.000000
 -0.375000 -0.125000  0.125000      2.000000
 -0.125000 -0.125000  0.125000      2.000000
  0.125000  0.125000  0.375000      2.000000
  0.375000  0.125000  0.375000      2.000000
 -0.375000  0.125000  0.375000      2.000000
 -0.125000  0.125000  0.375000      2.000000
  0.125000  0.375000  0.375000      2.000000
  0.375000  0.375000  0.375000      2.000000
 -0.375000  0.375000  0.375000      2.000000
 -0.125000  0.375000  0.375000      2.000000
  0.125000 -0.375000  0.375000      2.000000
  0.375000 -0.375000  0.375000      2.000000
 -0.375000 -0.375000  0.375000      2.000000
 -0.125000 -0.375000  0.375000      2.000000
  0.125000 -0.125000  0.375000      2.000000
  0.375000 -0.125000  0.375000      2.000000
 -0.375000 -0.125000  0.375000      2.000000
 -0.125000 -0.125000  0.375000      2.000000
 


--------------------------------------------------------------------------------------------------------




 Dimension of arrays:
   k-points           NKPTS =     32   k-points in BZ     NKDIM =     32   number of bands    NBANDS=     32
   number of dos      NEDOS =    301   number of ions     NIONS =      2
   non local maximal  LDIM  =      6   non local SUM 2l+1 LMDIM =     18
   total plane-waves  NPLWV =   2744
   max r-space proj   IRMAX =      1   max aug-charges    IRDMAX=   4377
   dimension x,y,z NGX =    14 NGY =   14 NGZ =   14
   dimension x,y,z NGXF=    28 NGYF=   28 NGZF=   28
   support grid    NGXF=    28 NGYF=   28 NGZF=   28
   ions per type =               2
 NGX,Y,Z   is equivalent  to a cutoff of   8.14,  8.14,  8.14 a.u.
 NGXF,Y,Z  is equivalent  to a cutoff of  16.28, 16.28, 16.28 a.u.


 I would recommend the setting:
   dimension x,y,z NGX =    13 NGY =   13 NGZ =   13
 SYSTEM =  Fe Bulk                                 
 POSCAR =  BCC Fe                                  

 Startparameter for this run:
   NWRITE =      2    write-flag & timer
   PREC   = normal    normal or accurate (medium, high low for compatibility)
   ISTART =      0    job   : 0-new  1-cont  2-samecut
   ICHARG =      2    charge: 1-file 2-atom 10-const
   ISPIN  =      2    spin polarized calculation?
   LNONCOLLINEAR =      F non collinear calculations
   LSORBIT =      F    spin-orbit coupling
   INIWAV =      1    electr: 0-lowe 1-rand  2-diag
   LASPH  =      F    aspherical Exc in radial PAW
   METAGGA=      F    non-selfconsistent MetaGGA calc.

 Electronic Relaxation 1
   ENCUT  =  350.0 eV  25.72 Ry    5.07 a.u.   4.36  4.36  4.36*2*pi/ulx,y,z
   ENINI  =  350.0     initial cutoff
   ENAUG  =  511.4 eV  augmentation charge cutoff
   NELM   =     60;   NELMIN=  6; NELMDL= -5     # of ELM steps 
   EDIFF  = 0.1E-04   stopping-criterion for ELM
   LREAL  =      F    real-space projection
   NLSPLINE    = F    spline interpolate recip. space projectors
   LCOMPAT=      F    compatible to vasp.4.4
   GGA_COMPAT  = T    GGA compatible to vasp.4.4-vasp.4.6
   LMAXPAW     = -100 max onsite density
   LMAXMIX     =    2 max onsite mixed and CHGCAR
   VOSKOWN=      0    Vosko Wilk Nusair interpolation
   ROPT   =    0.00000
 Ionic relaxation
   EDIFFG = -.1E-01   stopping-criterion for IOM
   NSW    =     20    number of steps for IOM
   NBLOCK =      1;   KBLOCK =     20    inner block; outer block 
   IBRION =      2    ionic relax: 0-MD 1-quasi-New 2-CG
   NFREE  =      1    steps in history (QN), initial steepest desc. (CG)
   ISIF   =      2    stress and relaxation
   IWAVPR =     11    prediction:  0-non 1-charg 2-wave 3-comb
   ISYM   =      0    0-nonsym 1-usesym 2-fastsym
   LCORR  =      T    Harris-Foulkes like correction to forces

   POTIM  = 0.5000    time-step for ionic-motion
   TEIN   =    0.0    initial temperature
   TEBEG  =    0.0;   TEEND  =   0.0 temperature during run
   SMASS  =  -3.00    Nose mass-parameter (am)
   estimated Nose-frequenzy (Omega)   =  0.10E-29 period in steps =****** mass=  -0.187E-27a.u.
   SCALEE = 1.0000    scale energy and forces
   NPACO  =    256;   APACO  = 16.0  distance and # of slots for P.C.
   PSTRESS=    0.0 pullay stress

  Mass of Ions in am
   POMASS =  55.85
  Ionic Valenz
   ZVAL   =   8.00
  Atomic Wigner-Seitz radii
   RWIGS  =  -1.00
  virtual crystal weights 
   VCA    =   1.00
   NELECT =      16.0000    total number of electrons
   NUPDOWN=      -1.0000    fix difference up-down

 DOS related values:
   EMIN   =  10.00;   EMAX   =-10.00  energy-range for DOS
   EFERMI =   0.00
   ISMEAR =     1;   SIGMA  =   0.20  broadening in eV -4-tet -1-fermi 0-gaus

 Electronic relaxation 2 (details)
   IALGO  =     38    algorithm
   LDIAG  =      T    sub-space diagonalisation (order eigenvalues)
   LSUBROT=      F    optimize rotation matrix (better conditioning)
   TURBO    =      0    0=normal 1=particle mesh
   IRESTART =      0    0=no restart 2=restart with 2 vectors
   NREBOOT  =      0    no. of reboots
   NMIN     =      0    reboot dimension
   EREF     =   0.00    reference energy to select bands
   IMIX   =      4    mixing-type and parameters
     AMIX     =   0.40;   BMIX     =  1.00
     AMIX_MAG =   1.60;   BMIX_MAG =  1.00
     AMIN     =   0.10
     WC   =   100.;   INIMIX=   1;  MIXPRE=   1;  MAXMIX=  40

 Intra band minimization:
   WEIMIN = 0.0010     energy-eigenvalue tresh-hold
   EBREAK =  0.78E-07  absolut break condition
   DEPER  =   0.30     relativ break condition  

   TIME   =   0.40     timestep for ELM

  volume/ion in A,a.u.               =      11.70        78.93
  Fermi-wavevector in a.u.,A,eV,Ry     =   1.442388  2.725718 28.306695  2.080483
  Thomas-Fermi vector in A             =   2.560914
 
 Write flags
   LWAVE  =      F    write WAVECAR
   LCHARG =      F    write CHGCAR
   LVTOT  =      F    write LOCPOT, total local potential
   LVHAR  =      F    write LOCPOT, Hartree potential only
   LELF   =      F    write electronic localiz. function (ELF)
   LORBIT =      0    0 simple, 1 ext, 2 COOP (PROOUT)


 Dipole corrections
   LMONO  =      F    monopole corrections only (constant potential shift)
   LDIPOL =      F    correct potential (dipole corrections)
   IDIPOL =      0    1-x, 2-y, 3-z, 4-all directions 
   EPSILON=  1.0000000 bulk dielectric constant

 Exchange correlation treatment:
   GGA     =    PE    GGA type
   LEXCH   =     8    internal setting for exchange type
   VOSKOWN=      0    Vosko Wilk Nusair interpolation
   LHFCALC =     F    Hartree Fock is set to
   LHFONE  =     F    Hartree Fock one center treatment
   AEXX    =    0.0000 exact exchange contribution

 Linear response parameters
   LEPSILON=     F    determine dielectric tensor
   LRPA    =     F    only Hartree local field effects (RPA)
   LNABLA  =     F    use nabla operator in PAW spheres
   LVEL    =     F    velocity operator in full k-point grid
   LINTERFAST=   F  fast interpolation
   KINTER  =     0    interpolate to denser k-point grid
   CSHIFT  =0.1000    complex shift for real part using Kramers Kronig
   OMEGAMAX=  -1.0    maximum frequency
   DEG_THRESHOLD= 0.2000000E-02 threshold for treating states as degnerate
   RTIME   =    0.100 relaxation time in fs

 Orbital magnetization related:
   ORBITALMAG=     F  switch on orbital magnetization
   LCHIMAG   =     F  perturbation theory with respect to B field
   DQ        =  0.001000  dq finite difference perturbation B field



--------------------------------------------------------------------------------------------------------


 conjugate gradient relaxation of ions
 charge density and potential will be updated during run
 spin polarized calculation
 Variant of blocked Davidson
 Davidson routine will perform the subspace rotation
 perform sub-space diagonalisation
    after iterative eigenvector-optimisation
 modified Broyden-mixing scheme, WC =      100.0
 initial mixing is a Kerker type mixing with AMIX =  0.4000 and BMIX =      1.0000
 Hartree-type preconditioning will be used
 using additional bands           24
 reciprocal scheme for non local part
 use partial core corrections
 calculate Harris-corrections to forces 
   (improved forces if not selfconsistent)
 use gradient corrections 
 use of overlap-Matrix (Vanderbilt PP)
 Methfessel and Paxton  Order N= 1 SIGMA  =   0.20


--------------------------------------------------------------------------------------------------------


  energy-cutoff  :      350.00
  volume of cell :       23.39
      direct lattice vectors                 reciprocal lattice vectors
     2.860000000  0.000000000  0.000000000     0.349650350  0.000000000  0.000000000
     0.000000000  2.860000000  0.000000000     0.000000000  0.349650350  0.000000000
     0.000000000  0.000000000  2.860000000     0.000000000  0.000000000  0.349650350

  length of vectors
     2.860000000  2.860000000  2.860000000     0.349650350  0.349650350  0.349650350


 
 k-points in units of 2pi/SCALE and weight: Automatic mesh                          
   0.12500000  0.12500000  0.12500000       0.031
   0.37500000  0.12500000  0.12500000       0.031
  -0.37500000  0.12500000  0.12500000       0.031
  -0.12500000  0.12500000  0.12500000       0.031
   0.12500000  0.37500000  0.12500000       0.031
   0.37500000  0.37500000  0.12500000       0.031
  -0.37500000  0.37500000  0.12500000       0.031
  -0.12500000  0.37500000  0.12500000       0.031
   0.12500000 -0.37500000  0.12500000       0.031
   0.37500000 -0.37500000  0.12500000       0.031
  -0.37500000 -0.37500000  0.12500000       0.031
  -0.12500000 -0.37500000  0.12500000       0.031
   0.12500000 -0.12500000  0.12500000       0.031
   0.37500000 -0.12500000  0.12500000       0.031
  -0.37500000 -0.12500000  0.12500000       0.031
  -0.12500000 -0.12500000  0.12500000       0.031
   0.12500000  0.12500000  0.37500000       0.031
   0.37500000  0.12500000  0.37500000       0.031
  -0.37500000  0.12500000  0.37500000       0.031
  -0.12500000  0.12500000  0.37500000       0.031
   0.12500000  0.37500000  0.37500000       0.031
   0.37500000  0.37500000  0.37500000       0.031
  -0.37500000  0.37500000  0.37500000       0.031
  -0.12500000  0.37500000  0.37500000       0.031
   0.12500000 -0.37500000  0.37500000       0.031
   0.37500000 -0.37500000  0.37500000       0.031
  -0.37500000 -0.37500000  0.37500000       0.031
  -0.12500000 -0.37500000  0.37500000       0.031
   0.12500000 -0.12500000  0.37500000       0.031
   0.37500000 -0.12500000  0.37500000       0.031
  -0.37500000 -0.12500000  0.37500000       0.031
  -0.12500000 -0.12500000  0.37500000       0.031
 
 k-points in reciprocal lattice and weights: Automatic mesh                          
   0.12500000  0.12500000  0.12500000       0.031
   0.37500000  0.12500000  0.12500000       0.031
  -0.37500000  0.12500000  0.12500000       0.031
  -0.12500000  0.12500000  0.12500000       0.031
   0.12500000  0.37500000  0.12500000       0.031
   0.37500000  0.37500000  0.12500000       0.031
  -0.37500000  0.37500000  0.12500000       0.031
  -0.12500000  0.37500000  0.12500000       0.031
   0.12500000 -0.37500000  0.12500000       0.031
   0.37500000 -0.37500000  0.12500000       0.031
  -0.37500000 -0.37500000  0.12500000       0.031
  -0.12500000 -0.37500000  0.12500000       0.031
   0.12500000 -0.12500000  0.12500000       0.031
   0.37500000 -0.12500000  0.12500000       0.031
  -0.37500000 -0.12500000  0.12500000       0.031
  -0.12500000 -0.12500000  0.12500000       0.031
   0.12500000  0.12500000  0.37500000       0.031
   0.37500000  0.12500000  0.37500000       0.031
  -0.37500000  0.12500000  0.37500000       0.031
  -0.12500000  0.12500000  0.37500000       0.031
   0.12500000  0.37500000  0.37500000       0.031
   0.37500000  0.37500000  0.37500000       0.031
  -0.37500000  0.37500000  0.37500000       0.031
  -0.12500000  0.37500000  0.37500000       0.031
   0.12500000 -0.37500000  0.37500000       0.031
   0.37500000 -0.37500000  0.37500000       0.031
  -0.37500000 -0.37500000  0.37500000       0.031
  -0.12500000 -0.37500000  0.37500000       0.031
   0.12500000 -0.12500000  0.37500000       0.031
   0.37500000 -0.12500000  0.37500000       0.031
  -0.37500000 -0.12500000  0.37500000       0.031
  -0.12500000 -0.12500000  0.37500000       0.031
 
 position of ions in fractional coordinates (direct lattice) 
   0.00000000  0.00000000  0.00000000
   0.50000000  0.50000000  0.50000000
 
 position of ions in cartesian coordinates  (Angst):
   0.00000000  0.00000000  0.00000000
   1.43000000  1.43000000  1.43000000
 


--------------------------------------------------------------------------------------------------------


 k-point  1 :   0.1250 0.1250 0.1250  plane waves:     347
 k-point  2 :   0.3750 0.1250 0.1250  plane waves:     354
 k-point  3 :  -0.3750 0.1250 0.1250  plane waves:     354
 k-point  4 :  -0.1250 0.1250 0.1250  plane waves:     347
 k-point  5 :   0.1250 0.3750 0.1250  plane waves:     354
 k-point  6 :   0.3750 0.3750 0.1250  plane waves:     343
 k-point  7 :  -0.3750 0.3750 0.1250  plane waves:     343
 k-point  8 :  -0.1250 0.3750 0.1250  plane waves:     354
 k-point  9 :   0.1250-0.3750 0.1250  plane waves:     354
 k-point 10 :   0.3750-0.3750 0.1250  plane waves:     343
 k-point 11 :  -0.3750-0.3750 0.1250  plane waves:     343
 k-point 12 :  -0.1250-0.3750 0.1250  plane waves:     354
 k-point 13 :   0.1250-0.1250 0.1250  plane waves:     347
 k-point 14 :   0.3750-0.1250 0.1250  plane waves:     354
 k-point 15 :  -0.3750-0.1250 0.1250  plane waves:     354
 k-point 16 :  -0.1250-0.1250 0.1250  plane waves:     347
 k-point 17 :   0.1250 0.1250 0.3750  plane waves:     354
 k-point 18 :   0.3750 0.1250 0.3750  plane waves:     343
 k-point 19 :  -0.3750 0.1250 0.3750  plane waves:     343
 k-point 20 :  -0.1250 0.1250 0.3750  plane waves:     354
 k-point 21 :   0.1250 0.3750 0.3750  plane waves:     343
 k-point 22 :   0.3750 0.3750 0.3750  plane waves:     344
 k-point 23 :  -0.3750 0.3750 0.3750  plane waves:     344
 k-point 24 :  -0.1250 0.3750 0.3750  plane waves:     343
 k-point 25 :   0.1250-0.3750 0.3750  plane waves:     343
 k-point 26 :   0.3750-0.3750 0.3750  plane waves:     344
 k-point 27 :  -0.3750-0.3750 0.3750  plane waves:     344
 k-point 28 :  -0.1250-0.3750 0.3750  plane waves:     343
 k-point 29 :   0.1250-0.1250 0.3750  plane waves:     354
 k-point 30 :   0.3750-0.1250 0.3750  plane waves:     343
 k-point 31 :  -0.3750-0.1250 0.3750  plane waves:     343
 k-point 32 :  -0.1250-0.1250 0.3750  plane waves:     354

 maximum and minimum number of plane-waves per node :       354      343

 maximum number of plane-waves:       354
 maximum index in each direction: 
   IXMAX=    4   IYMAX=    4   IZMAX=    4
   IXMIN=   -4   IYMIN=   -4   IZMIN=   -4

 WARNING: aliasing errors must be expected set NGX to  18 to avoid them
 WARNING: aliasing errors must be expected set NGY to  18 to avoid them
 WARNING: aliasing errors must be expected set NGZ to  18 to avoid them
 aliasing errors are usually negligible using standard VASP settings
 and one can safely disregard these warnings

 serial   3D FFT for wavefunctions
 parallel 3D FFT for charge:
    minimum data exchange during FFTs selected (reduces bandwidth)


 total amount of memory used by VASP on root node    32632. kBytes
========================================================================

   base      :      30000. kBytes
   nonl-proj :       1781. kBytes
   fftplans  :         46. kBytes
   grid      :        285. kBytes
   one-center:         62. kBytes
   wavefun   :        458. kBytes
 
     INWAV:  cpu time    0.0000: real time    0.0002
 Broyden mixing: mesh for mixing (old mesh)
   NGX =  9   NGY =  9   NGZ =  9
  (NGX  = 28   NGY  = 28   NGZ  = 28)
  gives a total of    729 points

 initial charge density was supplied:
 charge density of overlapping atoms calculated
 number of electron      16.0000000 magnetization       2.0000000
 keeping initial charge density in first step


--------------------------------------------------------------------------------------------------------


 Maximum index for augmentation-charges          301 (set IRDMAX)


--------------------------------------------------------------------------------------------------------


 First call to EWALD:  gamma=   0.620
 Maximum number of real-space cells 3x 3x 3
 Maximum number of reciprocal cells 3x 3x 3

 FEWALD executed in parallel
    FEWALD:  cpu time    0.0020: real time    0.0020


----------------------------------------- Iteration    1(   1)  ---------------------------------------


    POTLOK:  cpu time    0.0050: real time    0.0049
    SETDIJ:  cpu time    0.0070: real time    0.0070
     EDDAV:  cpu time    0.7619: real time    0.7625
       DOS:  cpu time    0.0010: real time    0.0010
    --------------------------------------------
      LOOP:  cpu time    0.7799: real time    0.7963

 eigenvalue-minimisations  :  4192
 total energy-change (2. order) :-0.9187693E+01  (-0.6892630E+03)
 number of electron      16.0000000 magnetization       2.0000000
 augmentation part       16.0000000 magnetization       2.0000000

 Free energy of the ion-electron system (eV)
  ---------------------------------------------------
  alpha Z        PSCENC =       118.17524546
  Ewald energy   TEWEN  =     -1172.68111701
  -Hartree energ DENC   =      -227.55063009
  -exchange      EXHF   =         0.00000000
  -V(xc)+E(xc)   XCENC  =         7.90833155
  PAW double counting   =      1109.45345578    -1124.86183816
  entropy T*S    EENTRO =        -0.00072156
  eigenvalues    EBANDS =        91.77992489
  atomic energy  EATOM  =      1188.58965621
  Solvation  Ediel_sol  =         0.00000000
  ---------------------------------------------------
  free energy    TOTEN  =        -9.18769294 eV

  energy without entropy =       -9.18697137  energy(sigma->0) =       -9.18745242


--------------------------------------------------------------------------------------------------------




----------------------------------------- Iteration    1(   2)  ---------------------------------------


     EDDAV:  cpu time    1.1768: real time    1.1790
       DOS:  cpu time    0.0010: real time    0.0010
    --------------------------------------------
      LOOP:  cpu time    1.1798: real time    1.1940

 eigenvalue-minimisations  :  5504
 total energy-change (2. order) :-0.9321499E+01  (-0.9107830E+01)
 number of electron      16.0000000 magnetization       2.0000000
 augmentation part       16.0000000 magnetization       2.0000000

 Free energy of the ion-electron system (eV)
  ---------------------------------------------------
  alpha Z        PSCENC =       118.17524546
  Ewald energy   TEWEN  =     -1172.68111701
  -Hartree energ DENC   =      -227.55063009
  -exchange      EXHF   =         0.00000000
  -V(xc)+E(xc)   XCENC  =         7.90833155
  PAW double counting   =      1109.45345578    -1124.86183816
  entropy T*S    EENTRO =         0.00636744
  eigenvalues    EBANDS =        82.45133643
  atomic energy  EATOM  =      1188.58965621
  Solvation  Ediel_sol  =         0.00000000
  ---------------------------------------------------
  free energy    TOTEN  =       -18.50919239 eV

  energy without entropy =      -18.51555983  energy(sigma->0) =      -18.51131487


--------------------------------------------------------------------------------------------------------




----------------------------------------- Iteration    1(   3)  ---------------------------------------


     EDDAV:  cpu time    0.9769: real time    0.9767
       DOS:  cpu time    0.0010: real time    0.0009
    --------------------------------------------
      LOOP:  cpu time    0.9789: real time    0.9905

 eigenvalue-minimisations  :  4736
 total energy-change (2. order) :-0.1123950E-01  (-0.1123735E-01)
 number of electron      16.0000000 magnetization       2.0000000
 augmentation part       16.0000000 magnetization       2.0000000

 Free energy of the ion-electron system (eV)
  ---------------------------------------------------
  alpha Z        PSCENC =       118.17524546
  Ewald energy   TEWEN  =     -1172.68111701
  -Hartree energ DENC   =      -227.55063009
  -exchange      EXHF   =         0.00000000
  -V(xc)+E(xc)   XCENC  =         7.90833155
  PAW double counting   =      1109.45345578    -1124.86183816
  entropy T*S    EENTRO =         0.00638884
  eigenvalues    EBANDS =        82.44007553
  atomic energy  EATOM  =      1188.58965621
  Solvation  Ediel_sol  =         0.00000000
  ---------------------------------------------------
  free energy    TOTEN  =       -18.52043189 eV

  energy without entropy =      -18.52682073  energy(sigma->0) =      -18.52256150


--------------------------------------------------------------------------------------------------------




----------------------------------------- Iteration    1(   4)  ---------------------------------------


     EDDAV:  cpu time    1.8437: real time    1.8450
       DOS:  cpu time    0.0010: real time    0.0010
    --------------------------------------------
      LOOP:  cpu time    1.8447: real time    1.8505

 eigenvalue-minimisations  :  6976
 total energy-change (2. order) :-0.9699171E-05  (-0.9699676E-05)
 number of electron      16.0000000 magnetization       2.0000000
 augmentation part       16.0000000 magnetization       2.0000000

 Free energy of the ion-electron system (eV)
  ---------------------------------------------------
  alpha Z        PSCENC =       118.17524546
  Ewald energy   TEWEN  =     -1172.68111701
  -Hartree energ DENC   =      -227.55063009
  -exchange      EXHF   =         0.00000000
  -V(xc)+E(xc)   XCENC  =         7.90833155
  PAW double counting   =      1109.45345578    -1124.86183816
  entropy T*S    EENTRO =         0.00638878
  eigenvalues    EBANDS =        82.44006589
  atomic energy  EATOM  =      1188.58965621
  Solvation  Ediel_sol  =         0.00000000
  ---------------------------------------------------
  free energy    TOTEN  =       -18.52044159 eV

  energy without entropy =      -18.52683038  energy(sigma->0) =      -18.52257119


--------------------------------------------------------------------------------------------------------




----------------------------------------- Iteration    1(   5)  ---------------------------------------


     EDDAV:  cpu time    1.0098: real time    1.0103
       DOS:  cpu time    0.0000: real time    0.0010
    CHARGE:  cpu time    0.0050: real time    0.0043
    MIXING:  cpu time    0.0010: real time    0.0004
    --------------------------------------------
      LOOP:  cpu time    1.0168: real time    1.0289

 eigenvalue-minimisations  :  4800
 total energy-change (2. order) :-0.2003162E-09  (-0.3148258E-10)
 number of electron      15.9999916 magnetization       2.2524416
 augmentation part        7.1470191 magnetization       1.6475993

 Broyden mixing:
  rms(total) = 0.15462E+01    rms(broyden)= 0.15453E+01
  rms(prec ) = 0.37274E+01
  weight for this iteration     100.00

 Free energy of the ion-electron system (eV)
  ---------------------------------------------------
  alpha Z        PSCENC =       118.17524546
  Ewald energy   TEWEN  =     -1172.68111701
  -Hartree energ DENC   =      -227.55063009
  -exchange      EXHF   =         0.00000000
  -V(xc)+E(xc)   XCENC  =         7.90833155
  PAW double counting   =      1109.45345578    -1124.86183816
  entropy T*S    EENTRO =         0.00638878
  eigenvalues    EBANDS =        82.44006589
  atomic energy  EATOM  =      1188.58965621
  Solvation  Ediel_sol  =         0.00000000
  ---------------------------------------------------
  free energy    TOTEN  =       -18.52044159 eV

  energy without entropy =      -18.52683038  energy(sigma->0) =      -18.52257119


--------------------------------------------------------------------------------------------------------




----------------------------------------- Iteration    1(   6)  ---------------------------------------


    POTLOK:  cpu time    0.0030: real time    0.0040
    SETDIJ:  cpu time    0.0070: real time    0.0069
     EDDAV:  cpu time    1.1028: real time    1.1037
       DOS:  cpu time    0.0010: real time    0.0009
    CHARGE:  cpu time    0.0050: real time    0.0043
    MIXING:  cpu time    0.0000: real time    0.0003
    --------------------------------------------
      LOOP:  cpu time    1.1198: real time    1.1339

 eigenvalue-minimisations  :  5248
 total energy-change (2. order) : 0.2172876E+01  (-0.3300649E+01)
 number of electron      15.9999889 magnetization       3.5415482
 augmentation part        8.6290387 magnetization       2.8496430

 Broyden mixing:
  rms(total) = 0.96411E+00    rms(broyden)= 0.96366E+00
  rms(prec ) = 0.12130E+01
  weight for this iteration     100.00

 eigenvalues of (default mixing * dielectric matrix)
  average eigenvalue GAMMA=   0.4794
  0.4794

 Free energy of the ion-electron system (eV)
  ---------------------------------------------------
  alpha Z        PSCENC =       118.17524546
  Ewald energy   TEWEN  =     -1172.68111701
  -Hartree energ DENC   =      -192.01174400
  -exchange      EXHF   =         0.00000000
  -V(xc)+E(xc)   XCENC  =         6.54118433
  PAW double counting   =      1193.13357849    -1203.55873048
  entropy T*S    EENTRO =        -0.02388654
  eigenvalues    EBANDS =        45.48824799
  atomic energy  EATOM  =      1188.58965621
  Solvation  Ediel_sol  =         0.00000000
  ---------------------------------------------------
  free energy    TOTEN  =       -16.34756555 eV

  energy without entropy =      -16.32367901  energy(sigma->0) =      -16.33960337


--------------------------------------------------------------------------------------------------------




----------------------------------------- Iteration    1(   7)  ---------------------------------------


    POTLOK:  cpu time    0.0040: real time    0.0038
    SETDIJ:  cpu time    0.0070: real time    0.0069
     EDDAV:  cpu time    0.8909: real time    0.8915
       DOS:  cpu time    0.0000: real time    0.0009
    CHARGE:  cpu time    0.0050: real time    0.0042
    MIXING:  cpu time    0.0000: real time    0.0003
    --------------------------------------------
      LOOP:  cpu time    0.9079: real time    0.9209

 eigenvalue-minimisations  :  4608
 total energy-change (2. order) :-0.1001085E+00  (-0.2433627E+00)
 number of electron      15.9999898 magnetization       4.3829015
 augmentation part        8.2816772 magnetization       3.6124633

 Broyden mixing:
  rms(total) = 0.45733E+00    rms(broyden)= 0.45729E+00
  rms(prec ) = 0.49704E+00
  weight for this iteration     100.00

 eigenvalues of (default mixing * dielectric matrix)
  average eigenvalue GAMMA=   0.8764
  1.0135  0.7394

 Free energy of the ion-electron system (eV)
  ---------------------------------------------------
  alpha Z        PSCENC =       118.17524546
  Ewald energy   TEWEN  =     -1172.68111701
  -Hartree energ DENC   =      -197.98523928
  -exchange      EXHF   =         0.00000000
  -V(xc)+E(xc)   XCENC  =         7.75592862
  PAW double counting   =      1259.83000748    -1274.01607225
  entropy T*S    EENTRO =        -0.02059266
  eigenvalues    EBANDS =        53.90450936
  atomic energy  EATOM  =      1188.58965621
  Solvation  Ediel_sol  =         0.00000000
  ---------------------------------------------------
  free energy    TOTEN  =       -16.44767408 eV

  energy without entropy =      -16.42708142  energy(sigma->0) =      -16.44080986


--------------------------------------------------------------------------------------------------------




----------------------------------------- Iteration    1(   8)  ---------------------------------------


    POTLOK:  cpu time    0.0030: real time    0.0037
    SETDIJ:  cpu time    0.0070: real time    0.0069
     EDDAV:  cpu time    1.3878: real time    1.3877
       DOS:  cpu time    0.0010: real time    0.0009
    CHARGE:  cpu time    0.0040: real time    0.0042
    MIXING:  cpu time    0.0000: real time    0.0002
    --------------------------------------------
      LOOP:  cpu time    1.4038: real time    1.4083

 eigenvalue-minimisations  :  6144
 total energy-change (2. order) :-0.6819109E-01  (-0.1783473E-01)
 number of electron      15.9999897 magnetization       4.4029670
 augmentation part        8.2730869 magnetization       3.6845442

 Broyden mixing:
  rms(total) = 0.24012E+00    rms(broyden)= 0.24007E+00
  rms(prec ) = 0.28319E+00
  weight for this iteration     100.00

 eigenvalues of (default mixing * dielectric matrix)
  average eigenvalue GAMMA=   0.9790
  1.6179  0.6595  0.6595

 Free energy of the ion-electron system (eV)
  ---------------------------------------------------
  alpha Z        PSCENC =       118.17524546
  Ewald energy   TEWEN  =     -1172.68111701
  -Hartree energ DENC   =      -196.57208241
  -exchange      EXHF   =         0.00000000
  -V(xc)+E(xc)   XCENC  =         8.48845248
  PAW double counting   =      1319.57729429    -1335.54840547
  entropy T*S    EENTRO =        -0.01262260
  eigenvalues    EBANDS =        53.46771388
  atomic energy  EATOM  =      1188.58965621
  Solvation  Ediel_sol  =         0.00000000
  ---------------------------------------------------
  free energy    TOTEN  =       -16.51586517 eV

  energy without entropy =      -16.50324257  energy(sigma->0) =      -16.51165764


--------------------------------------------------------------------------------------------------------




----------------------------------------- Iteration    1(   9)  ---------------------------------------


    POTLOK:  cpu time    0.0030: real time    0.0037
    SETDIJ:  cpu time    0.0070: real time    0.0069
     EDDAV:  cpu time    1.2118: real time    1.2120
       DOS:  cpu time    0.0010: real time    0.0009
    CHARGE:  cpu time    0.0050: real time    0.0042
    MIXING:  cpu time    0.0000: real time    0.0002
    --------------------------------------------
      LOOP:  cpu time    1.2288: real time    1.2416

 eigenvalue-minimisations  :  5504
 total energy-change (2. order) : 0.1043552E-01  (-0.1025636E-02)
 number of electron      15.9999897 magnetization       4.0797700
 augmentation part        8.2822406 magnetization       3.3663073

 Broyden mixing:
  rms(total) = 0.13018E+00    rms(broyden)= 0.13016E+00
  rms(prec ) = 0.15339E+00
  weight for this iteration     100.00

 eigenvalues of (default mixing * dielectric matrix)
  average eigenvalue GAMMA=   1.3266
  2.4591  1.4078  0.8080  0.6313

 Free energy of the ion-electron system (eV)
  ---------------------------------------------------
  alpha Z        PSCENC =       118.17524546
  Ewald energy   TEWEN  =     -1172.68111701
  -Hartree energ DENC   =      -195.30529138
  -exchange      EXHF   =         0.00000000
  -V(xc)+E(xc)   XCENC  =         8.52776890
  PAW double counting   =      1363.99724865    -1381.07777545
  entropy T*S    EENTRO =        -0.01516232
  eigenvalues    EBANDS =        53.28399728
  atomic energy  EATOM  =      1188.58965621
  Solvation  Ediel_sol  =         0.00000000
  ---------------------------------------------------
  free energy    TOTEN  =       -16.50542965 eV

  energy without entropy =      -16.49026734  energy(sigma->0) =      -16.50037555


--------------------------------------------------------------------------------------------------------




----------------------------------------- Iteration    1(  10)  ---------------------------------------


    POTLOK:  cpu time    0.0020: real time    0.0036
    SETDIJ:  cpu time    0.0070: real time    0.0069
     EDDAV:  cpu time    1.0998: real time    1.1002
       DOS:  cpu time    0.0010: real time    0.0009
    CHARGE:  cpu time    0.0040: real time    0.0042
    MIXING:  cpu time    0.0010: real time    0.0003
    --------------------------------------------
      LOOP:  cpu time    1.1158: real time    1.1300

 eigenvalue-minimisations  :  5248
 total energy-change (2. order) : 0.3003114E-02  (-0.3209914E-02)
 number of electron      15.9999897 magnetization       4.2695167
 augmentation part        8.2937887 magnetization       3.5369816

 Broyden mixing:
  rms(total) = 0.73333E-01    rms(broyden)= 0.73330E-01
  rms(prec ) = 0.73492E-01
  weight for this iteration     100.00

 eigenvalues of (default mixing * dielectric matrix)
  average eigenvalue GAMMA=   1.1831
  2.5233  1.0836  0.9396  0.7306  0.6385

 Free energy of the ion-electron system (eV)
  ---------------------------------------------------
  alpha Z        PSCENC =       118.17524546
  Ewald energy   TEWEN  =     -1172.68111701
  -Hartree energ DENC   =      -193.81064974
  -exchange      EXHF   =         0.00000000
  -V(xc)+E(xc)   XCENC  =         8.17345537
  PAW double counting   =      1414.50176244    -1432.58697822
  entropy T*S    EENTRO =        -0.01096833
  eigenvalues    EBANDS =        53.14716728
  atomic energy  EATOM  =      1188.58965621
  Solvation  Ediel_sol  =         0.00000000
  ---------------------------------------------------
  free energy    TOTEN  =       -16.50242654 eV

  energy without entropy =      -16.49145822  energy(sigma->0) =      -16.49877043


--------------------------------------------------------------------------------------------------------




----------------------------------------- Iteration    1(  11)  ---------------------------------------


    POTLOK:  cpu time    0.0030: real time    0.0036
    SETDIJ:  cpu time    0.0070: real time    0.0069
     EDDAV:  cpu time    1.2308: real time    1.2316
       DOS:  cpu time    0.0010: real time    0.0009
    CHARGE:  cpu time    0.0040: real time    0.0042
    MIXING:  cpu time    0.0000: real time    0.0003
    --------------------------------------------
      LOOP:  cpu time    1.2468: real time    1.2604

 eigenvalue-minimisations  :  5632
 total energy-change (2. order) :-0.3641895E-02  (-0.7992814E-03)
 number of electron      15.9999897 magnetization       4.2339313
 augmentation part        8.2926054 magnetization       3.5208276

 Broyden mixing:
  rms(total) = 0.17184E-01    rms(broyden)= 0.17183E-01
  rms(prec ) = 0.17832E-01
  weight for this iteration     100.00

 eigenvalues of (default mixing * dielectric matrix)
  average eigenvalue GAMMA=   1.1089
  2.3362  1.2848  1.0085  0.7105  0.7105  0.6032

 Free energy of the ion-electron system (eV)
  ---------------------------------------------------
  alpha Z        PSCENC =       118.17524546
  Ewald energy   TEWEN  =     -1172.68111701
  -Hartree energ DENC   =      -193.94446925
  -exchange      EXHF   =         0.00000000
  -V(xc)+E(xc)   XCENC  =         8.34407059
  PAW double counting   =      1408.91447740    -1426.89649067
  entropy T*S    EENTRO =        -0.01171269
  eigenvalues    EBANDS =        53.00427153
  atomic energy  EATOM  =      1188.58965621
  Solvation  Ediel_sol  =         0.00000000
  ---------------------------------------------------
  free energy    TOTEN  =       -16.50606844 eV

  energy without entropy =      -16.49435575  energy(sigma->0) =      -16.50216421


--------------------------------------------------------------------------------------------------------




----------------------------------------- Iteration    1(  12)  ---------------------------------------


    POTLOK:  cpu time    0.0030: real time    0.0036
    SETDIJ:  cpu time    0.0070: real time    0.0069
     EDDAV:  cpu time    0.8989: real time    0.8991
       DOS:  cpu time    0.0010: real time    0.0009
    CHARGE:  cpu time    0.0040: real time    0.0042
    MIXING:  cpu time    0.0000: real time    0.0003
    --------------------------------------------
      LOOP:  cpu time    0.9159: real time    0.9283

 eigenvalue-minimisations  :  4608
 total energy-change (2. order) :-0.1856876E-03  (-0.1919012E-04)
 number of electron      15.9999897 magnetization       4.2323983
 augmentation part        8.2935341 magnetization       3.5185064

 Broyden mixing:
  rms(total) = 0.49025E-02    rms(broyden)= 0.48977E-02
  rms(prec ) = 0.62179E-02
  weight for this iteration     100.00

 eigenvalues of (default mixing * dielectric matrix)
  average eigenvalue GAMMA=   1.0696
  2.3128  1.1568  1.1568  0.7696  0.7696  0.6389  0.6823

 Free energy of the ion-electron system (eV)
  ---------------------------------------------------
  alpha Z        PSCENC =       118.17524546
  Ewald energy   TEWEN  =     -1172.68111701
  -Hartree energ DENC   =      -193.96036169
  -exchange      EXHF   =         0.00000000
  -V(xc)+E(xc)   XCENC  =         8.31299766
  PAW double counting   =      1407.44440990    -1425.36998516
  entropy T*S    EENTRO =        -0.01115356
  eigenvalues    EBANDS =        52.99405408
  atomic energy  EATOM  =      1188.58965621
  Solvation  Ediel_sol  =         0.00000000
  ---------------------------------------------------
  free energy    TOTEN  =       -16.50625412 eV

  energy without entropy =      -16.49510056  energy(sigma->0) =      -16.50253627


--------------------------------------------------------------------------------------------------------




----------------------------------------- Iteration    1(  13)  ---------------------------------------


    POTLOK:  cpu time    0.0030: real time    0.0036
    SETDIJ:  cpu time    0.0070: real time    0.0069
     EDDAV:  cpu time    0.5219: real time    0.5501
       DOS:  cpu time    0.0010: real time    0.0009
    --------------------------------------------
      LOOP:  cpu time    0.5339: real time    0.5662

 eigenvalue-minimisations  :  2944
 total energy-change (2. order) :-0.3222694E-05  (-0.3688799E-05)
 number of electron      15.9999897 magnetization       4.2323983
 augmentation part        8.2935341 magnetization       3.5185064

 Free energy of the ion-electron system (eV)
  ---------------------------------------------------
  alpha Z        PSCENC =       118.17524546
  Ewald energy   TEWEN  =     -1172.68111701
  -Hartree energ DENC   =      -193.94845799
  -exchange      EXHF   =         0.00000000
  -V(xc)+E(xc)   XCENC  =         8.31278400
  PAW double counting   =      1407.66052751    -1425.58124610
  entropy T*S    EENTRO =        -0.01113766
  eigenvalues    EBANDS =        52.97748824
  atomic energy  EATOM  =      1188.58965621
  Solvation  Ediel_sol  =         0.00000000
  ---------------------------------------------------
  free energy    TOTEN  =       -16.50625735 eV

  energy without entropy =      -16.49511968  energy(sigma->0) =      -16.50254479


--------------------------------------------------------------------------------------------------------




 average (electrostatic) potential at core
  the test charge radii are     1.0103
  (the norm of the test charge is              1.0000)
       1 -43.6563       2 -43.6534
 
 
 
 E-fermi :   5.3360     XC(G=0): -12.9622     alpha+bet :-13.2519


 spin component 1

 k-point     1 :       0.1250    0.1250    0.1250
  band No.  band energies     occupation 
      1      -1.7957      1.00000
      2       1.2346      1.00000
      3       1.2346      1.00000
      4       3.0671      1.00000
      5       3.0671      1.00000
      6       3.8387      1.00000
      7       4.3667      1.00000
      8       4.3667      1.00000
      9       4.3931      1.00000
     10       5.3598      0.40020
     11       5.3598      0.40020
     12      13.9508      0.00000
     13      13.9508      0.00000
     14      15.0578      0.00000
     15      23.5157      0.00000
     16      23.5157      0.00000
     17      26.5999      0.00000
     18      26.5999      0.00000
     19      28.2983      0.00000
     20      30.3005      0.00000
     21      31.1486      0.00000
     22      35.9484      0.00000
     23      35.9484      0.00000
     24      36.9821      0.00000
     25      36.9821      0.00000
     26      40.3609      0.00000
     27      42.2574      0.00000
     28      44.1478      0.00000
     29      44.1478      0.00000
     30      47.5347      0.00000
     31      49.4266      0.00000
     32      49.4266      0.00000

 k-point     2 :       0.3750    0.1250    0.1250
  band No.  band energies     occupation 
      1       0.1985      1.00000
      2       1.6752      1.00000
      3       1.9821      1.00000
      4       2.7884      1.00000
      5       2.9971      1.00000
      6       3.3529      1.00000
      7       3.9603      1.00000
      8       4.2931      1.00000
      9       4.6339      1.00000
     10       4.9651      1.01242
     11       5.2064      0.94054
     12       8.1203     -0.00000
     13      17.0216      0.00000
     14      17.6216      0.00000
     15      21.2672      0.00000
     16      22.2099      0.00000
     17      25.1545      0.00000
     18      26.6298      0.00000
     19      28.7220      0.00000
     20      28.8988      0.00000
     21      32.6354      0.00000
     22      34.1819      0.00000
     23      37.0378      0.00000
     24      37.2333      0.00000
     25      40.4806      0.00000
     26      42.5718      0.00000
     27      43.7957      0.00000
     28      45.1239      0.00000
     29      46.0104      0.00000
     30      48.0196      0.00000
     31      50.7188      0.00000
     32      51.8931      0.00000

 k-point     3 :      -0.3750    0.1250    0.1250
  band No.  band energies     occupation 
      1       0.1985      1.00000
      2       1.6752      1.00000
      3       1.9821      1.00000
      4       2.7884      1.00000
      5       2.9971      1.00000
      6       3.3529      1.00000
      7       3.9603      1.00000
      8       4.2931      1.00000
      9       4.6339      1.00000
     10       4.9651      1.01242
     11       5.2064      0.94054
     12       8.1203     -0.00000
     13      17.0216      0.00000
     14      17.6216      0.00000
     15      21.2672      0.00000
     16      22.2099      0.00000
     17      25.1545      0.00000
     18      26.6298      0.00000
     19      28.7220      0.00000
     20      28.8988      0.00000
     21      32.6354      0.00000
     22      34.1819      0.00000
     23      37.0378      0.00000
     24      37.2333      0.00000
     25      40.4806      0.00000
     26      42.5718      0.00000
     27      43.7957      0.00000
     28      45.1239      0.00000
     29      46.0104      0.00000
     30      48.0196      0.00000
     31      50.7188      0.00000
     32      51.8931      0.00000

 k-point     4 :      -0.1250    0.1250    0.1250
  band No.  band energies     occupation 
      1      -1.7957      1.00000
      2       1.2346      1.00000
      3       1.2346      1.00000
      4       3.0671      1.00000
      5       3.0671      1.00000
      6       3.8387      1.00000
      7       4.3667      1.00000
      8       4.3667      1.00000
      9       4.3931      1.00000
     10       5.3598      0.40020
     11       5.3598      0.40020
     12      13.9508      0.00000
     13      13.9508      0.00000
     14      15.0578      0.00000
     15      23.5157      0.00000
     16      23.5157      0.00000
     17      26.5999      0.00000
     18      26.5999      0.00000
     19      28.2983      0.00000
     20      30.3005      0.00000
     21      31.1486      0.00000
     22      35.9484      0.00000
     23      35.9484      0.00000
     24      36.9821      0.00000
     25      36.9821      0.00000
     26      40.3609      0.00000
     27      42.2574      0.00000
     28      44.1478      0.00000
     29      44.1478      0.00000
     30      47.5347      0.00000
     31      49.4266      0.00000
     32      49.4266      0.00000

 k-point     5 :       0.1250    0.3750    0.1250
  band No.  band energies     occupation 
      1       0.1985      1.00000
      2       1.6752      1.00000
      3       1.9821      1.00000
      4       2.7884      1.00000
      5       2.9971      1.00000
      6       3.3529      1.00000
      7       3.9603      1.00000
      8       4.2931      1.00000
      9       4.6339      1.00000
     10       4.9651      1.01242
     11       5.2064      0.94054
     12       8.1203     -0.00000
     13      17.0216      0.00000
     14      17.6216      0.00000
     15      21.2672      0.00000
     16      22.2099      0.00000
     17      25.1545      0.00000
     18      26.6298      0.00000
     19      28.7220      0.00000
     20      28.8988      0.00000
     21      32.6354      0.00000
     22      34.1819      0.00000
     23      37.0378      0.00000
     24      37.2333      0.00000
     25      40.4806      0.00000
     26      42.5718      0.00000
     27      43.7957      0.00000
     28      45.1239      0.00000
     29      46.0104      0.00000
     30      48.0196      0.00000
     31      50.7188      0.00000
     32      51.8931      0.00000

 k-point     6 :       0.3750    0.3750    0.1250
  band No.  band energies     occupation 
      1       0.9109      1.00000
      2       1.2828      1.00000
      3       2.3385      1.00000
      4       2.4967      1.00000
      5       3.2046      1.00000
      6       3.6236      1.00000
      7       4.3512      1.00000
      8       4.4557      1.00000
      9       4.5761      1.00000
     10       5.3555      0.41806
     11       6.2057     -0.00000
     12       8.6701     -0.00000
     13      12.7760      0.00000
     14      15.7525      0.00000
     15      19.3252      0.00000
     16      22.5834      0.00000
     17      24.1978      0.00000
     18      25.7042      0.00000
     19      30.0079      0.00000
     20      30.8765      0.00000
     21      34.2814      0.00000
     22      34.6770      0.00000
     23      37.0434      0.00000
     24      39.8894      0.00000
     25      39.9499      0.00000
     26      41.0414      0.00000
     27      47.1969      0.00000
     28      49.1268      0.00000
     29      49.9358      0.00000
     30      50.5458      0.00000
     31      51.8778      0.00000
     32      52.8919      0.00000

 k-point     7 :      -0.3750    0.3750    0.1250
  band No.  band energies     occupation 
      1       0.9109      1.00000
      2       1.2828      1.00000
      3       2.3385      1.00000
      4       2.4967      1.00000
      5       3.2046      1.00000
      6       3.6236      1.00000
      7       4.3512      1.00000
      8       4.4557      1.00000
      9       4.5761      1.00000
     10       5.3555      0.41806
     11       6.2057     -0.00000
     12       8.6701     -0.00000
     13      12.7760      0.00000
     14      15.7525      0.00000
     15      19.3252      0.00000
     16      22.5834      0.00000
     17      24.1978      0.00000
     18      25.7042      0.00000
     19      30.0079      0.00000
     20      30.8765      0.00000
     21      34.2814      0.00000
     22      34.6770      0.00000
     23      37.0434      0.00000
     24      39.8894      0.00000
     25      39.9499      0.00000
     26      41.0414      0.00000
     27      47.1969      0.00000
     28      49.1268      0.00000
     29      49.9358      0.00000
     30      50.5458      0.00000
     31      51.8778      0.00000
     32      52.8919      0.00000

 k-point     8 :      -0.1250    0.3750    0.1250
  band No.  band energies     occupation 
      1       0.1985      1.00000
      2       1.6752      1.00000
      3       1.9821      1.00000
      4       2.7884      1.00000
      5       2.9971      1.00000
      6       3.3529      1.00000
      7       3.9603      1.00000
      8       4.2931      1.00000
      9       4.6339      1.00000
     10       4.9651      1.01242
     11       5.2064      0.94054
     12       8.1203     -0.00000
     13      17.0216      0.00000
     14      17.6216      0.00000
     15      21.2672      0.00000
     16      22.2099      0.00000
     17      25.1545      0.00000
     18      26.6298      0.00000
     19      28.7220      0.00000
     20      28.8988      0.00000
     21      32.6354      0.00000
     22      34.1819      0.00000
     23      37.0378      0.00000
     24      37.2333      0.00000
     25      40.4806      0.00000
     26      42.5718      0.00000
     27      43.7957      0.00000
     28      45.1239      0.00000
     29      46.0104      0.00000
     30      48.0196      0.00000
     31      50.7188      0.00000
     32      51.8931      0.00000

 k-point     9 :       0.1250   -0.3750    0.1250
  band No.  band energies     occupation 
      1       0.1985      1.00000
      2       1.6752      1.00000
      3       1.9821      1.00000
      4       2.7884      1.00000
      5       2.9971      1.00000
      6       3.3529      1.00000
      7       3.9603      1.00000
      8       4.2931      1.00000
      9       4.6339      1.00000
     10       4.9651      1.01242
     11       5.2064      0.94054
     12       8.1203     -0.00000
     13      17.0216      0.00000
     14      17.6216      0.00000
     15      21.2672      0.00000
     16      22.2099      0.00000
     17      25.1545      0.00000
     18      26.6298      0.00000
     19      28.7220      0.00000
     20      28.8988      0.00000
     21      32.6354      0.00000
     22      34.1819      0.00000
     23      37.0378      0.00000
     24      37.2333      0.00000
     25      40.4806      0.00000
     26      42.5718      0.00000
     27      43.7957      0.00000
     28      45.1239      0.00000
     29      46.0104      0.00000
     30      48.0196      0.00000
     31      50.7188      0.00000
     32      51.8931      0.00000

 k-point    10 :       0.3750   -0.3750    0.1250
  band No.  band energies     occupation 
      1       0.9109      1.00000
      2       1.2828      1.00000
      3       2.3385      1.00000
      4       2.4967      1.00000
      5       3.2046      1.00000
      6       3.6236      1.00000
      7       4.3512      1.00000
      8       4.4557      1.00000
      9       4.5761      1.00000
     10       5.3555      0.41806
     11       6.2057     -0.00000
     12       8.6701     -0.00000
     13      12.7760      0.00000
     14      15.7525      0.00000
     15      19.3252      0.00000
     16      22.5834      0.00000
     17      24.1978      0.00000
     18      25.7042      0.00000
     19      30.0079      0.00000
     20      30.8765      0.00000
     21      34.2814      0.00000
     22      34.6770      0.00000
     23      37.0434      0.00000
     24      39.8894      0.00000
     25      39.9499      0.00000
     26      41.0414      0.00000
     27      47.1969      0.00000
     28      49.1268      0.00000
     29      49.9358      0.00000
     30      50.5458      0.00000
     31      51.8778      0.00000
     32      52.8919      0.00000

 k-point    11 :      -0.3750   -0.3750    0.1250
  band No.  band energies     occupation 
      1       0.9109      1.00000
      2       1.2828      1.00000
      3       2.3385      1.00000
      4       2.4967      1.00000
      5       3.2046      1.00000
      6       3.6236      1.00000
      7       4.3512      1.00000
      8       4.4557      1.00000
      9       4.5761      1.00000
     10       5.3555      0.41806
     11       6.2057     -0.00000
     12       8.6701     -0.00000
     13      12.7760      0.00000
     14      15.7525      0.00000
     15      19.3252      0.00000
     16      22.5834      0.00000
     17      24.1978      0.00000
     18      25.7042      0.00000
     19      30.0079      0.00000
     20      30.8765      0.00000
     21      34.2814      0.00000
     22      34.6770      0.00000
     23      37.0434      0.00000
     24      39.8894      0.00000
     25      39.9499      0.00000
     26      41.0414      0.00000
     27      47.1969      0.00000
     28      49.1268      0.00000
     29      49.9358      0.00000
     30      50.5458      0.00000
     31      51.8778      0.00000
     32      52.8919      0.00000

 k-point    12 :      -0.1250   -0.3750    0.1250
  band No.  band energies     occupation 
      1       0.1985      1.00000
      2       1.6752      1.00000
      3       1.9821      1.00000
      4       2.7884      1.00000
      5       2.9971      1.00000
      6       3.3529      1.00000
      7       3.9603      1.00000
      8       4.2931      1.00000
      9       4.6339      1.00000
     10       4.9651      1.01242
     11       5.2064      0.94054
     12       8.1203     -0.00000
     13      17.0216      0.00000
     14      17.6216      0.00000
     15      21.2672      0.00000
     16      22.2099      0.00000
     17      25.1545      0.00000
     18      26.6298      0.00000
     19      28.7220      0.00000
     20      28.8988      0.00000
     21      32.6354      0.00000
     22      34.1819      0.00000
     23      37.0378      0.00000
     24      37.2333      0.00000
     25      40.4806      0.00000
     26      42.5718      0.00000
     27      43.7957      0.00000
     28      45.1239      0.00000
     29      46.0104      0.00000
     30      48.0196      0.00000
     31      50.7188      0.00000
     32      51.8931      0.00000

 k-point    13 :       0.1250   -0.1250    0.1250
  band No.  band energies     occupation 
      1      -1.7957      1.00000
      2       1.2346      1.00000
      3       1.2346      1.00000
      4       3.0671      1.00000
      5       3.0671      1.00000
      6       3.8387      1.00000
      7       4.3667      1.00000
      8       4.3667      1.00000
      9       4.3931      1.00000
     10       5.3598      0.40020
     11       5.3598      0.40020
     12      13.9508      0.00000
     13      13.9508      0.00000
     14      15.0578      0.00000
     15      23.5157      0.00000
     16      23.5157      0.00000
     17      26.5999      0.00000
     18      26.5999      0.00000
     19      28.2983      0.00000
     20      30.3005      0.00000
     21      31.1486      0.00000
     22      35.9484      0.00000
     23      35.9484      0.00000
     24      36.9821      0.00000
     25      36.9821      0.00000
     26      40.3609      0.00000
     27      42.2574      0.00000
     28      44.1478      0.00000
     29      44.1478      0.00000
     30      47.5347      0.00000
     31      49.4266      0.00000
     32      49.4266      0.00000

 k-point    14 :       0.3750   -0.1250    0.1250
  band No.  band energies     occupation 
      1       0.1985      1.00000
      2       1.6752      1.00000
      3       1.9821      1.00000
      4       2.7884      1.00000
      5       2.9971      1.00000
      6       3.3529      1.00000
      7       3.9603      1.00000
      8       4.2931      1.00000
      9       4.6339      1.00000
     10       4.9651      1.01242
     11       5.2064      0.94054
     12       8.1203     -0.00000
     13      17.0216      0.00000
     14      17.6216      0.00000
     15      21.2672      0.00000
     16      22.2099      0.00000
     17      25.1545      0.00000
     18      26.6298      0.00000
     19      28.7220      0.00000
     20      28.8988      0.00000
     21      32.6354      0.00000
     22      34.1819      0.00000
     23      37.0378      0.00000
     24      37.2333      0.00000
     25      40.4806      0.00000
     26      42.5718      0.00000
     27      43.7957      0.00000
     28      45.1239      0.00000
     29      46.0104      0.00000
     30      48.0196      0.00000
     31      50.7188      0.00000
     32      51.8931      0.00000

 k-point    15 :      -0.3750   -0.1250    0.1250
  band No.  band energies     occupation 
      1       0.1985      1.00000
      2       1.6752      1.00000
      3       1.9821      1.00000
      4       2.7884      1.00000
      5       2.9971      1.00000
      6       3.3529      1.00000
      7       3.9603      1.00000
      8       4.2931      1.00000
      9       4.6339      1.00000
     10       4.9651      1.01242
     11       5.2064      0.94054
     12       8.1203     -0.00000
     13      17.0216      0.00000
     14      17.6216      0.00000
     15      21.2672      0.00000
     16      22.2099      0.00000
     17      25.1545      0.00000
     18      26.6298      0.00000
     19      28.7220      0.00000
     20      28.8988      0.00000
     21      32.6354      0.00000
     22      34.1819      0.00000
     23      37.0378      0.00000
     24      37.2333      0.00000
     25      40.4806      0.00000
     26      42.5718      0.00000
     27      43.7957      0.00000
     28      45.1239      0.00000
     29      46.0104      0.00000
     30      48.0196      0.00000
     31      50.7188      0.00000
     32      51.8931      0.00000

 k-point    16 :      -0.1250   -0.1250    0.1250
  band No.  band energies     occupation 
      1      -1.7957      1.00000
      2       1.2346      1.00000
      3       1.2346      1.00000
      4       3.0671      1.00000
      5       3.0671      1.00000
      6       3.8387      1.00000
      7       4.3667      1.00000
      8       4.3667      1.00000
      9       4.3931      1.00000
     10       5.3598      0.40020
     11       5.3598      0.40020
     12      13.9508      0.00000
     13      13.9508      0.00000
     14      15.0578      0.00000
     15      23.5157      0.00000
     16      23.5157      0.00000
     17      26.5999      0.00000
     18      26.5999      0.00000
     19      28.2983      0.00000
     20      30.3005      0.00000
     21      31.1486      0.00000
     22      35.9484      0.00000
     23      35.9484      0.00000
     24      36.9821      0.00000
     25      36.9821      0.00000
     26      40.3609      0.00000
     27      42.2574      0.00000
     28      44.1478      0.00000
     29      44.1478      0.00000
     30      47.5347      0.00000
     31      49.4266      0.00000
     32      49.4266      0.00000

 k-point    17 :       0.1250    0.1250    0.3750
  band No.  band energies     occupation 
      1       0.1985      1.00000
      2       1.6752      1.00000
      3       1.9821      1.00000
      4       2.7884      1.00000
      5       2.9971      1.00000
      6       3.3529      1.00000
      7       3.9603      1.00000
      8       4.2931      1.00000
      9       4.6339      1.00000
     10       4.9651      1.01242
     11       5.2064      0.94054
     12       8.1203     -0.00000
     13      17.0216      0.00000
     14      17.6216      0.00000
     15      21.2672      0.00000
     16      22.2099      0.00000
     17      25.1545      0.00000
     18      26.6298      0.00000
     19      28.7220      0.00000
     20      28.8988      0.00000
     21      32.6354      0.00000
     22      34.1819      0.00000
     23      37.0378      0.00000
     24      37.2333      0.00000
     25      40.4806      0.00000
     26      42.5718      0.00000
     27      43.7957      0.00000
     28      45.1239      0.00000
     29      46.0104      0.00000
     30      48.0196      0.00000
     31      50.7188      0.00000
     32      51.8931      0.00000

 k-point    18 :       0.3750    0.1250    0.3750
  band No.  band energies     occupation 
      1       0.9109      1.00000
      2       1.2828      1.00000
      3       2.3385      1.00000
      4       2.4967      1.00000
      5       3.2046      1.00000
      6       3.6236      1.00000
      7       4.3512      1.00000
      8       4.4557      1.00000
      9       4.5761      1.00000
     10       5.3555      0.41806
     11       6.2057     -0.00000
     12       8.6701     -0.00000
     13      12.7760      0.00000
     14      15.7525      0.00000
     15      19.3252      0.00000
     16      22.5834      0.00000
     17      24.1978      0.00000
     18      25.7042      0.00000
     19      30.0079      0.00000
     20      30.8765      0.00000
     21      34.2814      0.00000
     22      34.6770      0.00000
     23      37.0434      0.00000
     24      39.8894      0.00000
     25      39.9499      0.00000
     26      41.0414      0.00000
     27      47.1969      0.00000
     28      49.1268      0.00000
     29      49.9358      0.00000
     30      50.5458      0.00000
     31      51.8778      0.00000
     32      52.8919      0.00000

 k-point    19 :      -0.3750    0.1250    0.3750
  band No.  band energies     occupation 
      1       0.9109      1.00000
      2       1.2828      1.00000
      3       2.3385      1.00000
      4       2.4967      1.00000
      5       3.2046      1.00000
      6       3.6236      1.00000
      7       4.3512      1.00000
      8       4.4557      1.00000
      9       4.5761      1.00000
     10       5.3555      0.41806
     11       6.2057     -0.00000
     12       8.6701     -0.00000
     13      12.7760      0.00000
     14      15.7525      0.00000
     15      19.3252      0.00000
     16      22.5834      0.00000
     17      24.1978      0.00000
     18      25.7042      0.00000
     19      30.0079      0.00000
     20      30.8765      0.00000
     21      34.2814      0.00000
     22      34.6770      0.00000
     23      37.0434      0.00000
     24      39.8894      0.00000
     25      39.9499      0.00000
     26      41.0414      0.00000
     27      47.1969      0.00000
     28      49.1268      0.00000
     29      49.9358      0.00000
     30      50.5458      0.00000
     31      51.8778      0.00000
     32      52.8919      0.00000

 k-point    20 :      -0.1250    0.1250    0.3750
  band No.  band energies     occupation 
      1       0.1985      1.00000
      2       1.6752      1.00000
      3       1.9821      1.00000
      4       2.7884      1.00000
      5       2.9971      1.00000
      6       3.3529      1.00000
      7       3.9603      1.00000
      8       4.2931      1.00000
      9       4.6339      1.00000
     10       4.9651      1.01242
     11       5.2064      0.94054
     12       8.1203     -0.00000
     13      17.0216      0.00000
     14      17.6216      0.00000
     15      21.2672      0.00000
     16      22.2099      0.00000
     17      25.1545      0.00000
     18      26.6298      0.00000
     19      28.7220      0.00000
     20      28.8988      0.00000
     21      32.6354      0.00000
     22      34.1819      0.00000
     23      37.0378      0.00000
     24      37.2333      0.00000
     25      40.4806      0.00000
     26      42.5718      0.00000
     27      43.7957      0.00000
     28      45.1239      0.00000
     29      46.0104      0.00000
     30      48.0196      0.00000
     31      50.7188      0.00000
     32      51.8931      0.00000

 k-point    21 :       0.1250    0.3750    0.3750
  band No.  band energies     occupation 
      1       0.9109      1.00000
      2       1.2828      1.00000
      3       2.3385      1.00000
      4       2.4967      1.00000
      5       3.2046      1.00000
      6       3.6236      1.00000
      7       4.3512      1.00000
      8       4.4557      1.00000
      9       4.5761      1.00000
     10       5.3555      0.41806
     11       6.2057     -0.00000
     12       8.6701     -0.00000
     13      12.7760      0.00000
     14      15.7525      0.00000
     15      19.3252      0.00000
     16      22.5834      0.00000
     17      24.1978      0.00000
     18      25.7042      0.00000
     19      30.0079      0.00000
     20      30.8765      0.00000
     21      34.2814      0.00000
     22      34.6770      0.00000
     23      37.0434      0.00000
     24      39.8894      0.00000
     25      39.9499      0.00000
     26      41.0414      0.00000
     27      47.1969      0.00000
     28      49.1268      0.00000
     29      49.9358      0.00000
     30      50.5458      0.00000
     31      51.8778      0.00000
     32      52.8919      0.00000

 k-point    22 :       0.3750    0.3750    0.3750
  band No.  band energies     occupation 
      1       1.8988      1.00000
      2       2.2272      1.00000
      3       2.2272      1.00000
      4       2.3847      1.00000
      5       2.5836      1.00000
      6       2.5836      1.00000
      7       4.5938      1.00000
      8       4.5938      1.00000
      9       4.6612      1.00001
     10       4.6612      1.00001
     11       8.8021     -0.00000
     12      12.3024      0.00000
     13      12.3024      0.00000
     14      14.7300      0.00000
     15      17.0704      0.00000
     16      17.0704      0.00000
     17      18.3313      0.00000
     18      21.6103      0.00000
     19      36.0964      0.00000
     20      36.0964      0.00000
     21      38.0090      0.00000
     22      40.5986      0.00000
     23      40.5986      0.00000
     24      43.0504      0.00000
     25      43.7875      0.00000
     26      45.1324      0.00000
     27      45.1324      0.00000
     28      46.8280      0.00000
     29      46.8280      0.00000
     30      47.5283      0.00000
     31      51.6488      0.00000
     32      51.6784      0.00000

 k-point    23 :      -0.3750    0.3750    0.3750
  band No.  band energies     occupation 
      1       1.8988      1.00000
      2       2.2272      1.00000
      3       2.2272      1.00000
      4       2.3847      1.00000
      5       2.5836      1.00000
      6       2.5836      1.00000
      7       4.5938      1.00000
      8       4.5938      1.00000
      9       4.6612      1.00001
     10       4.6612      1.00001
     11       8.8021     -0.00000
     12      12.3024      0.00000
     13      12.3024      0.00000
     14      14.7300      0.00000
     15      17.0704      0.00000
     16      17.0704      0.00000
     17      18.3313      0.00000
     18      21.6103      0.00000
     19      36.0964      0.00000
     20      36.0964      0.00000
     21      38.0090      0.00000
     22      40.5986      0.00000
     23      40.5986      0.00000
     24      43.0504      0.00000
     25      43.7875      0.00000
     26      45.1324      0.00000
     27      45.1324      0.00000
     28      46.8280      0.00000
     29      46.8280      0.00000
     30      47.5283      0.00000
     31      51.6488      0.00000
     32      51.6784      0.00000

 k-point    24 :      -0.1250    0.3750    0.3750
  band No.  band energies     occupation 
      1       0.9109      1.00000
      2       1.2828      1.00000
      3       2.3385      1.00000
      4       2.4967      1.00000
      5       3.2046      1.00000
      6       3.6236      1.00000
      7       4.3512      1.00000
      8       4.4557      1.00000
      9       4.5761      1.00000
     10       5.3555      0.41806
     11       6.2057     -0.00000
     12       8.6701     -0.00000
     13      12.7760      0.00000
     14      15.7525      0.00000
     15      19.3252      0.00000
     16      22.5834      0.00000
     17      24.1978      0.00000
     18      25.7042      0.00000
     19      30.0079      0.00000
     20      30.8765      0.00000
     21      34.2814      0.00000
     22      34.6770      0.00000
     23      37.0434      0.00000
     24      39.8894      0.00000
     25      39.9499      0.00000
     26      41.0414      0.00000
     27      47.1969      0.00000
     28      49.1268      0.00000
     29      49.9358      0.00000
     30      50.5458      0.00000
     31      51.8778      0.00000
     32      52.8919      0.00000

 k-point    25 :       0.1250   -0.3750    0.3750
  band No.  band energies     occupation 
      1       0.9109      1.00000
      2       1.2828      1.00000
      3       2.3385      1.00000
      4       2.4967      1.00000
      5       3.2046      1.00000
      6       3.6236      1.00000
      7       4.3512      1.00000
      8       4.4557      1.00000
      9       4.5761      1.00000
     10       5.3555      0.41806
     11       6.2057     -0.00000
     12       8.6701     -0.00000
     13      12.7760      0.00000
     14      15.7525      0.00000
     15      19.3252      0.00000
     16      22.5834      0.00000
     17      24.1978      0.00000
     18      25.7042      0.00000
     19      30.0079      0.00000
     20      30.8765      0.00000
     21      34.2814      0.00000
     22      34.6770      0.00000
     23      37.0434      0.00000
     24      39.8894      0.00000
     25      39.9499      0.00000
     26      41.0414      0.00000
     27      47.1969      0.00000
     28      49.1268      0.00000
     29      49.9358      0.00000
     30      50.5458      0.00000
     31      51.8778      0.00000
     32      52.8919      0.00000

 k-point    26 :       0.3750   -0.3750    0.3750
  band No.  band energies     occupation 
      1       1.8988      1.00000
      2       2.2272      1.00000
      3       2.2272      1.00000
      4       2.3847      1.00000
      5       2.5836      1.00000
      6       2.5836      1.00000
      7       4.5938      1.00000
      8       4.5938      1.00000
      9       4.6612      1.00001
     10       4.6612      1.00001
     11       8.8021     -0.00000
     12      12.3024      0.00000
     13      12.3024      0.00000
     14      14.7300      0.00000
     15      17.0704      0.00000
     16      17.0704      0.00000
     17      18.3313      0.00000
     18      21.6103      0.00000
     19      36.0964      0.00000
     20      36.0964      0.00000
     21      38.0090      0.00000
     22      40.5986      0.00000
     23      40.5986      0.00000
     24      43.0504      0.00000
     25      43.7875      0.00000
     26      45.1324      0.00000
     27      45.1324      0.00000
     28      46.8280      0.00000
     29      46.8280      0.00000
     30      47.5283      0.00000
     31      51.6488      0.00000
     32      51.6784      0.00000

 k-point    27 :      -0.3750   -0.3750    0.3750
  band No.  band energies     occupation 
      1       1.8988      1.00000
      2       2.2272      1.00000
      3       2.2272      1.00000
      4       2.3847      1.00000
      5       2.5836      1.00000
      6       2.5836      1.00000
      7       4.5938      1.00000
      8       4.5938      1.00000
      9       4.6612      1.00001
     10       4.6612      1.00001
     11       8.8021     -0.00000
[...]
      8       7.2429     -0.00000
      9       7.2879     -0.00000
     10       7.2879     -0.00000
     11      10.2298     -0.00000
     12      13.2743      0.00000
     13      13.2743      0.00000
     14      15.5782      0.00000
     15      17.7526      0.00000
     16      17.7526      0.00000
     17      18.9656      0.00000
     18      22.1326      0.00000
     19      36.0995      0.00000
     20      36.0995      0.00000
     21      37.7148      0.00000
     22      40.7297      0.00000
     23      40.7297      0.00000
     24      43.7355      0.00000
     25      43.9240      0.00000
     26      45.7906      0.00000
     27      45.7906      0.00000
     28      47.0385      0.00000
     29      47.0385      0.00000
     30      48.1413      0.00000
     31      51.4229      0.00000
     32      52.2406      0.00000

 k-point    28 :      -0.1250   -0.3750    0.3750
  band No.  band energies     occupation 
      1       1.7586      1.00000
      2       2.6313      1.00000
      3       3.9985      1.00000
      4       4.1591      1.00000
      5       4.7061      1.00004
      6       4.7315      1.00008
      7       6.6972     -0.00000
      8       6.9484     -0.00000
      9       7.2997     -0.00000
     10       7.5878     -0.00000
     11       8.0322     -0.00000
     12       9.8608     -0.00000
     13      13.9840      0.00000
     14      16.6466      0.00000
     15      19.8755      0.00000
     16      22.8601      0.00000
     17      24.7907      0.00000
     18      25.9908      0.00000
     19      30.4241      0.00000
     20      31.0293      0.00000
     21      34.3530      0.00000
     22      35.1972      0.00000
     23      37.5278      0.00000
     24      40.0653      0.00000
     25      40.0929      0.00000
     26      41.7958      0.00000
     27      47.5456      0.00000
     28      49.7741      0.00000
     29      50.4907      0.00000
     30      50.5285      0.00000
     31      52.4104      0.00000
     32      53.3967      0.00000

 k-point    29 :       0.1250   -0.1250    0.3750
  band No.  band energies     occupation 
      1       0.4790      1.00000
      2       2.8876      1.00000
      3       3.8657      1.00000
      4       4.6106      1.00000
      5       4.7002      1.00003
      6       5.1276      1.02897
      7       6.2777     -0.00000
      8       6.3075     -0.00000
      9       6.7010     -0.00000
     10       7.3299     -0.00000
     11       7.5044     -0.00000
     12       9.5689     -0.00000
     13      17.8019      0.00000
     14      18.2561      0.00000
     15      21.8255      0.00000
     16      22.7411      0.00000
     17      25.5550      0.00000
     18      27.0275      0.00000
     19      28.9093      0.00000
     20      29.3623      0.00000
     21      32.9933      0.00000
     22      34.6362      0.00000
     23      37.5225      0.00000
     24      37.6783      0.00000
     25      40.9211      0.00000
     26      42.9376      0.00000
     27      44.1723      0.00000
     28      45.3431      0.00000
     29      46.3643      0.00000
     30      48.7956      0.00000
     31      51.3861      0.00000
     32      52.5489      0.00000

 k-point    30 :       0.3750   -0.1250    0.3750
  band No.  band energies     occupation 
      1       1.7586      1.00000
      2       2.6313      1.00000
      3       3.9985      1.00000
      4       4.1591      1.00000
      5       4.7061      1.00004
      6       4.7315      1.00008
      7       6.6972     -0.00000
      8       6.9484     -0.00000
      9       7.2997     -0.00000
     10       7.5878     -0.00000
     11       8.0322     -0.00000
     12       9.8608     -0.00000
     13      13.9840      0.00000
     14      16.6466      0.00000
     15      19.8755      0.00000
     16      22.8601      0.00000
     17      24.7907      0.00000
     18      25.9908      0.00000
     19      30.4241      0.00000
     20      31.0293      0.00000
     21      34.3530      0.00000
     22      35.1972      0.00000
     23      37.5278      0.00000
     24      40.0653      0.00000
     25      40.0929      0.00000
     26      41.7958      0.00000
     27      47.5456      0.00000
     28      49.7741      0.00000
     29      50.4907      0.00000
     30      50.5285      0.00000
     31      52.4104      0.00000
     32      53.3967      0.00000

 k-point    31 :      -0.3750   -0.1250    0.3750
  band No.  band energies     occupation 
      1       1.7586      1.00000
      2       2.6313      1.00000
      3       3.9985      1.00000
      4       4.1591      1.00000
      5       4.7061      1.00004
      6       4.7315      1.00008
      7       6.6972     -0.00000
      8       6.9484     -0.00000
      9       7.2997     -0.00000
     10       7.5878     -0.00000
     11       8.0322     -0.00000
     12       9.8608     -0.00000
     13      13.9840      0.00000
     14      16.6466      0.00000
     15      19.8755      0.00000
     16      22.8601      0.00000
     17      24.7907      0.00000
     18      25.9908      0.00000
     19      30.4241      0.00000
     20      31.0293      0.00000
     21      34.3530      0.00000
     22      35.1972      0.00000
     23      37.5278      0.00000
     24      40.0653      0.00000
     25      40.0929      0.00000
     26      41.7958      0.00000
     27      47.5456      0.00000
     28      49.7741      0.00000
     29      50.4907      0.00000
     30      50.5285      0.00000
     31      52.4104      0.00000
     32      53.3967      0.00000

 k-point    32 :      -0.1250   -0.1250    0.3750
  band No.  band energies     occupation 
      1       0.4790      1.00000
      2       2.8876      1.00000
      3       3.8657      1.00000
      4       4.6106      1.00000
      5       4.7002      1.00003
      6       5.1276      1.02897
      7       6.2777     -0.00000
      8       6.3075     -0.00000
      9       6.7010     -0.00000
     10       7.3299     -0.00000
     11       7.5044     -0.00000
     12       9.5689     -0.00000
     13      17.8019      0.00000
     14      18.2561      0.00000
     15      21.8255      0.00000
     16      22.7411      0.00000
     17      25.5550      0.00000
     18      27.0275      0.00000
     19      28.9093      0.00000
     20      29.3623      0.00000
     21      32.9933      0.00000
     22      34.6362      0.00000
     23      37.5225      0.00000
     24      37.6783      0.00000
     25      40.9211      0.00000
     26      42.9376      0.00000
     27      44.1723      0.00000
     28      45.3431      0.00000
     29      46.3643      0.00000
     30      48.7956      0.00000
     31      51.3861      0.00000
     32      52.5489      0.00000


--------------------------------------------------------------------------------------------------------


 soft charge-density along one line, spin component           1
         0         1         2         3         4         5         6         7         8         9
 total charge-density along one line
 
 soft charge-density along one line, spin component           2
         0         1         2         3         4         5         6         7         8         9
 total charge-density along one line
 
 pseudopotential strength for first ion, spin component:           1
 -5.800   0.000   0.000  -0.000  -0.000  -6.324   0.000   0.000
  0.000  -5.800  -0.000  -0.000   0.000   0.000  -6.324  -0.000
  0.000  -0.000  -5.985  -0.000   0.000   0.000  -0.000  -6.504
 -0.000  -0.000  -0.000  -5.800  -0.000  -0.000  -0.000  -0.000
 -0.000   0.000   0.000  -0.000  -5.985  -0.000   0.000   0.000
 -6.324   0.000   0.000  -0.000  -0.000  -6.807   0.000   0.000
  0.000  -6.324  -0.000  -0.000   0.000   0.000  -6.807  -0.000
  0.000  -0.000  -6.504  -0.000   0.000   0.000  -0.000  -6.982
 -0.000  -0.000  -0.000  -6.324  -0.000  -0.000  -0.000  -0.000
 -0.000   0.000   0.000  -0.000  -6.504  -0.000   0.000   0.000
  0.000   0.000  -0.000   0.000  -0.000   0.000   0.000   0.000
  0.000   0.000  -0.000   0.000  -0.000   0.000   0.000  -0.000
  0.000   0.000  -0.000  -0.000  -0.000   0.000   0.000  -0.000
 -0.000  -0.000  -0.000   0.000  -0.000  -0.000  -0.000  -0.000
  0.000  -0.000   0.000  -0.000   0.000   0.000  -0.000   0.000
  0.000   0.000  -0.000  -0.000  -0.000   0.000   0.000  -0.000
 -0.000  -0.000   0.000   0.000  -0.000  -0.000  -0.000  -0.000
  0.000  -0.000   0.000  -0.000   0.000   0.000  -0.000   0.000
 pseudopotential strength for first ion, spin component:           2
 -4.385   0.000  -0.000   0.000   0.000  -4.955   0.000  -0.000
  0.000  -4.385   0.000   0.000  -0.000   0.000  -4.955   0.000
 -0.000   0.000  -4.139   0.000   0.000  -0.000   0.000  -4.714
  0.000   0.000   0.000  -4.385   0.000   0.000   0.000   0.000
  0.000  -0.000   0.000   0.000  -4.139   0.000  -0.000   0.000
 -4.955   0.000  -0.000   0.000   0.000  -5.481   0.000  -0.000
  0.000  -4.955   0.000   0.000  -0.000   0.000  -5.481   0.000
 -0.000   0.000  -4.714   0.000   0.000  -0.000   0.000  -5.246
  0.000   0.000   0.000  -4.955   0.000   0.000   0.000   0.000
  0.000  -0.000   0.000   0.000  -4.714   0.000  -0.000   0.000
 -0.000  -0.000   0.000  -0.000   0.000  -0.000  -0.000   0.000
 -0.000  -0.000   0.000  -0.000   0.000  -0.000  -0.000   0.000
  0.000   0.000  -0.000   0.000   0.000   0.000   0.000  -0.000
  0.000  -0.000   0.000  -0.000  -0.000   0.000  -0.000   0.000
  0.000   0.000  -0.000   0.000  -0.000   0.000   0.000  -0.000
  0.000  -0.000  -0.000   0.000   0.000   0.000   0.000  -0.000
  0.000  -0.000   0.000  -0.000   0.000   0.000  -0.000   0.000
  0.000   0.000  -0.000   0.000  -0.000   0.000   0.000  -0.000
 total augmentation occupancy for first ion, spin component:           1
  2.159  -0.000  -0.000   0.000   0.000  -1.119   0.000  -0.000  -0.000  -0.000  -0.000   0.000   0.000  -0.000   0.000  -0.000
 -0.000   2.159  -0.000   0.000   0.000   0.000  -1.119   0.000   0.000  -0.000  -0.000   0.000  -0.000  -0.000   0.000   0.000
 -0.000  -0.000   3.571   0.000   0.000  -0.000   0.000  -2.229  -0.000  -0.000  -0.000   0.000  -0.000   0.000  -0.000   0.000
  0.000   0.000   0.000   2.159   0.000  -0.000   0.000  -0.000  -1.119  -0.000  -0.000   0.000  -0.000  -0.000   0.000   0.000
  0.000   0.000   0.000   0.000   3.571  -0.000  -0.000  -0.000  -0.000  -2.229  -0.000   0.000   0.000   0.000  -0.000  -0.000
 -1.119   0.000  -0.000  -0.000  -0.000   1.464  -0.000   0.000  -0.000   0.000  -0.000  -0.000  -0.000  -0.000  -0.000   0.000
  0.000  -1.119   0.000   0.000  -0.000  -0.000   1.464  -0.000  -0.000   0.000   0.000  -0.000   0.000   0.000  -0.000   0.000
 -0.000   0.000  -2.229  -0.000  -0.000   0.000  -0.000   2.152   0.000   0.000  -0.000   0.000   0.000  -0.000   0.000   0.000
 -0.000   0.000  -0.000  -1.119  -0.000  -0.000  -0.000   0.000   1.464   0.000  -0.000   0.000   0.000   0.000  -0.000  -0.000
 -0.000  -0.000  -0.000  -0.000  -2.229   0.000   0.000   0.000   0.000   2.152  -0.000   0.000  -0.000  -0.000   0.000  -0.000
 -0.000  -0.000  -0.000  -0.000  -0.000  -0.000   0.000  -0.000  -0.000  -0.000   2.341  -0.265   0.000  -0.000  -0.000  -0.000
  0.000   0.000   0.000   0.000   0.000  -0.000  -0.000   0.000   0.000   0.000  -0.265   0.036  -0.000   0.000   0.000   0.000
  0.000  -0.000  -0.000  -0.000   0.000  -0.000   0.000   0.000   0.000  -0.000   0.000  -0.000   0.283  -0.000   0.000  -0.025
 -0.000  -0.000   0.000  -0.000   0.000  -0.000   0.000  -0.000   0.000  -0.000  -0.000   0.000  -0.000   0.283   0.000   0.000
  0.000   0.000  -0.000   0.000  -0.000  -0.000  -0.000   0.000  -0.000   0.000  -0.000   0.000   0.000   0.000   0.283  -0.000
 -0.000   0.000   0.000   0.000  -0.000   0.000   0.000   0.000  -0.000  -0.000  -0.000   0.000  -0.025   0.000  -0.000   0.002
  0.000   0.000  -0.000   0.000  -0.000   0.000  -0.000   0.000  -0.000   0.000   0.000  -0.000   0.000  -0.025  -0.000  -0.000
 -0.000  -0.000   0.000  -0.000   0.000   0.000   0.000  -0.000  -0.000  -0.000   0.000  -0.000  -0.000  -0.000  -0.025   0.000
 total augmentation occupancy for first ion, spin component:           2
  1.811  -0.000  -0.000   0.000   0.000  -0.758  -0.000   0.000  -0.000  -0.000  -0.000   0.000   0.000  -0.000   0.000  -0.000
 -0.000   1.811  -0.000   0.000   0.000  -0.000  -0.758   0.000  -0.000  -0.000  -0.000   0.000  -0.000  -0.000   0.000   0.000
 -0.000  -0.000   3.116   0.000  -0.000   0.000   0.000  -1.407  -0.000   0.000  -0.000   0.000  -0.000   0.000  -0.000   0.000
  0.000   0.000   0.000   1.811   0.000  -0.000  -0.000  -0.000  -0.758  -0.000  -0.000   0.000  -0.000  -0.000   0.000   0.000
  0.000   0.000  -0.000   0.000   3.116  -0.000  -0.000   0.000  -0.000  -1.407  -0.000   0.000   0.000   0.000  -0.000  -0.000
 -0.758  -0.000   0.000  -0.000  -0.000   0.078   0.000  -0.000   0.000   0.000   0.000  -0.000  -0.000   0.000   0.000   0.000
 -0.000  -0.758   0.000  -0.000  -0.000   0.000   0.078  -0.000   0.000   0.000   0.000  -0.000   0.000  -0.000   0.000  -0.000
  0.000   0.000  -1.407  -0.000   0.000  -0.000  -0.000   0.418   0.000   0.000   0.000  -0.000   0.000  -0.000   0.000  -0.000
 -0.000  -0.000  -0.000  -0.758  -0.000   0.000   0.000   0.000   0.078   0.000   0.000  -0.000  -0.000   0.000  -0.000  -0.000
 -0.000  -0.000   0.000  -0.000  -1.407   0.000   0.000   0.000   0.000   0.418   0.000  -0.000  -0.000  -0.000   0.000   0.000
 -0.000  -0.000  -0.000  -0.000  -0.000   0.000   0.000   0.000   0.000   0.000  -0.313   0.096  -0.000   0.000  -0.000  -0.000
  0.000   0.000   0.000   0.000   0.000  -0.000  -0.000  -0.000  -0.000  -0.000   0.096  -0.016   0.000  -0.000   0.000  -0.000
  0.000  -0.000  -0.000  -0.000   0.000  -0.000   0.000   0.000  -0.000  -0.000  -0.000   0.000  -0.041  -0.000  -0.000   0.006
 -0.000  -0.000   0.000  -0.000   0.000   0.000  -0.000  -0.000   0.000  -0.000   0.000  -0.000  -0.000  -0.041   0.000   0.000
  0.000   0.000  -0.000   0.000  -0.000   0.000   0.000   0.000  -0.000   0.000  -0.000   0.000  -0.000   0.000  -0.041   0.000
 -0.000   0.000   0.000   0.000  -0.000   0.000  -0.000  -0.000  -0.000   0.000  -0.000  -0.000   0.006   0.000   0.000  -0.001
  0.000   0.000  -0.000   0.000  -0.000  -0.000   0.000   0.000  -0.000  -0.000   0.000   0.000   0.000   0.006  -0.000  -0.000
 -0.000  -0.000   0.000  -0.000   0.000  -0.000  -0.000  -0.000   0.000  -0.000  -0.000   0.000   0.000  -0.000   0.006  -0.000


------------------------ aborting loop because EDIFF is reached ----------------------------------------


    CHARGE:  cpu time    0.0070: real time    0.0074
    FORLOC:  cpu time    0.0000: real time    0.0000
    FORNL :  cpu time    0.0110: real time    0.0110
    STRESS:  cpu time    0.0520: real time    0.0515
    FORCOR:  cpu time    0.0020: real time    0.0029
    FORHAR:  cpu time    0.0010: real time    0.0005
    MIXING:  cpu time    0.0000: real time    0.0003
    OFIELD:  cpu time    0.0000: real time    0.0000

  FORCE on cell =-STRESS in cart. coord.  units (eV):
  Direction    XX          YY          ZZ          XY          YZ          ZX
  --------------------------------------------------------------------------------------
  Alpha Z   118.17525   118.17525   118.17525
  Ewald    -390.89368  -390.89368  -390.89368     0.00000     0.00000     0.00000
  Hartree    64.63639    64.63639    64.63639    -0.00000    -0.00000     0.00000
  E(xc)     -79.06353   -79.06353   -79.06353     0.00000     0.00000     0.00000
  Local     116.09870   116.09870   116.09870     0.00000     0.00000     0.00000
  n-local   -52.23329   -52.23329   -52.23329     0.00000     0.00000    -0.00000
  augment    77.52152    77.52152    77.52152    -0.00000     0.00000    -0.00000
  Kinetic   144.53680   144.53680   144.53680     0.00000     0.00000    -0.00000
  Fock        0.00000     0.00000     0.00000     0.00000     0.00000     0.00000
  -------------------------------------------------------------------------------------
  Total      -1.22184    -1.22184    -1.22184     0.00000     0.00000    -0.00000
  in kB     -83.68104   -83.68097   -83.68104     0.00019     0.00030    -0.00003
  external pressure =      -83.68 kB  Pullay stress =        0.00 kB


 VOLUME and BASIS-vectors are now :
 -----------------------------------------------------------------------------
  energy-cutoff  :      350.00
  volume of cell :       23.39
      direct lattice vectors                 reciprocal lattice vectors
     2.860000000  0.000000000  0.000000000     0.349650350  0.000000000  0.000000000
     0.000000000  2.860000000  0.000000000     0.000000000  0.349650350  0.000000000
     0.000000000  0.000000000  2.860000000     0.000000000  0.000000000  0.349650350

  length of vectors
     2.860000000  2.860000000  2.860000000     0.349650350  0.349650350  0.349650350


 FORCES acting on ions
    electron-ion (+dipol)            ewald-force                    non-local-force                 convergence-correction
 -----------------------------------------------------------------------------------------------
   0.380E-07 -.258E-07 -.167E-07   0.219E-14 -.742E-15 -.130E-14   0.591E-07 -.424E-07 -.257E-07   -.417E-08 -.278E-07 0.131E-07
   0.113E-07 0.879E-08 0.314E-09   -.209E-14 0.143E-14 -.194E-15   -.460E-09 0.132E-07 -.270E-08   -.373E-07 0.255E-07 -.212E-08
 -----------------------------------------------------------------------------------------------
   0.493E-07 -.170E-07 -.164E-07   0.102E-15 0.685E-15 -.150E-14   0.586E-07 -.293E-07 -.284E-07   -.415E-07 -.232E-08 0.110E-07
 
 
 POSITION                                       TOTAL-FORCE (eV/Angst)
 -----------------------------------------------------------------------------------
      0.00000      0.00000      0.00000         0.000000     -0.000000     -0.000000
      1.43000      1.43000      1.43000        -0.000000      0.000000      0.000000
 -----------------------------------------------------------------------------------
    total drift:                                0.000000     -0.000000     -0.000000


--------------------------------------------------------------------------------------------------------



  FREE ENERGIE OF THE ION-ELECTRON SYSTEM (eV)
  ---------------------------------------------------
  free  energy   TOTEN  =       -16.50625735 eV

  energy  without entropy=      -16.49511968  energy(sigma->0) =      -16.50254479
 


--------------------------------------------------------------------------------------------------------


    POTLOK:  cpu time    0.0110: real time    0.0105


--------------------------------------------------------------------------------------------------------




--------------------------------------------------------------------------------------------------------


  
 reached required accuracy - stopping structural energy minimisation
     LOOP+:  cpu time   14.3728: real time   14.5643
    4ORBIT:  cpu time    0.0000: real time    0.0000

 total amount of memory used by VASP on root node    32632. kBytes
========================================================================

   base      :      30000. kBytes
   nonl-proj :       1781. kBytes
   fftplans  :         46. kBytes
   grid      :        285. kBytes
   one-center:         62. kBytes
   wavefun   :        458. kBytes
 
  
  
 General timing and accounting informations for this job:
 ========================================================
  
                  Total CPU time used (sec):       15.668
                            User time (sec):       14.872
                          System time (sec):        0.796
                         Elapsed time (sec):       16.285
  
                   Maximum memory used (kb):       73208.
                   Average memory used (kb):           0.
  
                          Minor page faults:       288476
                          Major page faults:            0
                 Voluntary context switches:         2999
