   2   2   0   0
  0.1169683E+02  0.2860000E-09  0.2860000E-09  0.2860000E-09  0.5000000E-15
  1.000000000000000E-004
  CAR 
 Fe Bulk                                 
     58.41880208     -5.48673022  301      5.48854297      1.00000000
     -5.487  0.0000E+00  0.0000E+00  0.0000E+00  0.0000E+00
     -5.274  0.0000E+00  0.0000E+00  0.0000E+00  0.0000E+00
     -5.061  0.0000E+00  0.0000E+00  0.0000E+00  0.0000E+00
     -4.848  0.0000E+00  0.0000E+00  0.0000E+00  0.0000E+00
     -4.635  0.0000E+00  0.0000E+00  0.0000E+00  0.0000E+00
     -4.422  0.0000E+00  0.0000E+00  0.0000E+00  0.0000E+00
     -4.209 -0.8027E-31 -0.7506E-37 -0.1710E-31 -0.1599E-37
     -3.996 -0.7506E-24 -0.4065E-29 -0.1599E-24 -0.8660E-30
     -3.783 -0.7094E-18 -0.2236E-22 -0.1511E-18 -0.4763E-23
     -3.570 -0.6447E-13 -0.1199E-16 -0.1373E-13 -0.2554E-17
     -3.357 -0.5866E-09 -0.6573E-12 -0.1250E-09 -0.1400E-12
     -3.144 -0.4922E-06 -0.3466E-08 -0.1050E-06 -0.7384E-09
     -2.931 -0.3091E-04 -0.1645E-05 -0.6689E-05 -0.3511E-06
     -2.717  0.1187E-03 -0.5064E-04  0.1859E-04 -0.1114E-04
     -2.504  0.1288E-02  0.3631E-03  0.2930E-03  0.6620E-04
     -2.291  0.1186E-02  0.1259E-02  0.5457E-03  0.3344E-03
     -2.078  0.4136E-02  0.1775E-02  0.1427E-02  0.7124E-03
     -1.865  0.2323E-02  0.3858E-02  0.1921E-02  0.1534E-02
     -1.652  0.3751E-02  0.2617E-02  0.2721E-02  0.2092E-02
     -1.439  0.3778E-02  0.3292E-02  0.3525E-02  0.2793E-02
     -1.226  0.4776E-02  0.4359E-02  0.4542E-02  0.3722E-02
     -1.013  0.8089E-02  0.4231E-02  0.6266E-02  0.4623E-02
     -0.800  0.4168E-02  0.8220E-02  0.7153E-02  0.6374E-02
     -0.587  0.4350E-02  0.3745E-02  0.8080E-02  0.7172E-02
     -0.374  0.7922E-02  0.3745E-02  0.9768E-02  0.7969E-02
     -0.161  0.1050E-01  0.7081E-02  0.1201E-01  0.9478E-02
      0.052  0.1056E-01  0.8013E-02  0.1425E-01  0.1118E-01
      0.265  0.1006E-01  0.1229E-01  0.1640E-01  0.1380E-01
      0.478  0.8610E-02  0.4497E-02  0.1823E-01  0.1476E-01
      0.691  0.2197E-01  0.8551E-02  0.2291E-01  0.1658E-01
      0.904  0.4284E-01  0.8531E-02  0.3204E-01  0.1840E-01
      1.117  0.5773E-01  0.1298E-01  0.4433E-01  0.2117E-01
      1.330  0.6764E-01  0.1316E-01  0.5874E-01  0.2397E-01
      1.543  0.9940E-01  0.1442E-01  0.7992E-01  0.2704E-01
      1.756  0.8068E-01  0.1968E-01  0.9710E-01  0.3123E-01
      1.969  0.4684E-01  0.1817E-01  0.1071E+00  0.3510E-01
      2.182  0.6341E-01  0.2412E-01  0.1206E+00  0.4024E-01
      2.395  0.1506E+00  0.4673E-01  0.1527E+00  0.5019E-01
      2.608  0.1236E+00  0.3446E-01  0.1790E+00  0.5753E-01
      2.821  0.1067E+00  0.3723E-01  0.2017E+00  0.6546E-01
      3.034  0.1467E+00  0.6298E-01  0.2330E+00  0.7888E-01
      3.247  0.1335E+00  0.5838E-01  0.2614E+00  0.9132E-01
      3.460  0.6032E-01  0.5205E-01  0.2743E+00  0.1024E+00
      3.673  0.5446E-01  0.2511E-01  0.2859E+00  0.1078E+00
      3.886  0.3781E-01  0.6697E-01  0.2939E+00  0.1220E+00
      4.099  0.8563E-01  0.1270E+00  0.3122E+00  0.1491E+00
      4.312  0.1406E+00  0.1301E+00  0.3421E+00  0.1768E+00
      4.525  0.2278E+00  0.1177E+00  0.3907E+00  0.2018E+00
      4.738  0.2374E+00  0.1250E+00  0.4412E+00  0.2285E+00
      4.951  0.1229E+00  0.1175E+00  0.4674E+00  0.2535E+00
      5.164  0.8743E-01  0.9443E-01  0.4860E+00  0.2736E+00
      5.377  0.7711E-01  0.5471E-01  0.5025E+00  0.2853E+00
      5.590  0.8428E-01  0.2187E-01  0.5204E+00  0.2899E+00
      5.803  0.4161E-01  0.2498E-01  0.5293E+00  0.2953E+00
      6.016  0.9145E-02  0.3048E-01  0.5312E+00  0.3018E+00
      6.229  0.1359E-01  0.4306E-01  0.5341E+00  0.3109E+00
      6.442  0.1961E-01  0.5807E-01  0.5383E+00  0.3233E+00
      6.655  0.8547E-02  0.9142E-01  0.5401E+00  0.3428E+00
      6.868  0.1399E-01  0.1075E+00  0.5431E+00  0.3657E+00
      7.081  0.3198E-01  0.1442E+00  0.5499E+00  0.3964E+00
      7.294  0.1381E-01  0.1415E+00  0.5529E+00  0.4265E+00
      7.507  0.2965E-02  0.2354E+00  0.5535E+00  0.4767E+00
      7.720  0.1164E-01  0.1527E+00  0.5560E+00  0.5092E+00
      7.933  0.6325E-02  0.7509E-01  0.5573E+00  0.5252E+00
      8.146  0.2378E-01  0.3849E-01  0.5624E+00  0.5334E+00
      8.359  0.1080E-01  0.1899E-01  0.5647E+00  0.5374E+00
      8.572  0.1577E-01  0.2099E-01  0.5680E+00  0.5419E+00
      8.786  0.7637E-02  0.3291E-01  0.5697E+00  0.5489E+00
      8.999  0.1645E-01  0.1773E-01  0.5732E+00  0.5527E+00
      9.212  0.8196E-02  0.7379E-02  0.5749E+00  0.5543E+00
      9.425  0.1681E-01  0.1151E-01  0.5785E+00  0.5567E+00
      9.638  0.1468E-01  0.2546E-01  0.5816E+00  0.5621E+00
      9.851  0.2114E-02  0.1971E-01  0.5821E+00  0.5663E+00
     10.064 -0.8262E-03  0.1144E-01  0.5819E+00  0.5688E+00
     10.277  0.3613E-02  0.1522E-01  0.5827E+00  0.5720E+00
     10.490  0.1378E-01  0.8641E-02  0.5856E+00  0.5739E+00
     10.703  0.1709E-01  0.1778E-01  0.5892E+00  0.5776E+00
     10.916  0.1111E-01  0.1945E-01  0.5916E+00  0.5818E+00
     11.129  0.9577E-03  0.1190E-02  0.5918E+00  0.5820E+00
     11.342  0.1204E-01  0.1894E-02  0.5944E+00  0.5824E+00
     11.555  0.4291E-02  0.6955E-02  0.5953E+00  0.5839E+00
     11.768  0.4711E-03  0.2209E-01  0.5954E+00  0.5886E+00
     11.981  0.9227E-03  0.1429E-01  0.5956E+00  0.5917E+00
     12.194  0.2023E-02  0.7497E-03  0.5960E+00  0.5918E+00
     12.407  0.2908E-02  0.1179E-01  0.5966E+00  0.5943E+00
     12.620  0.5371E-02  0.4434E-02  0.5978E+00  0.5953E+00
     12.833  0.1985E-01  0.1498E-03  0.6020E+00  0.5953E+00
     13.046  0.2286E-01  0.1154E-02  0.6069E+00  0.5956E+00
     13.259  0.2163E-01  0.1716E-02  0.6115E+00  0.5959E+00
     13.472  0.2576E-01  0.5206E-02  0.6170E+00  0.5970E+00
     13.685  0.1612E-01  0.8841E-02  0.6204E+00  0.5989E+00
     13.898  0.2989E-01  0.3478E-02  0.6268E+00  0.5997E+00
     14.111  0.2033E-01  0.2450E-01  0.6311E+00  0.6049E+00
     14.324  0.4552E-02  0.2493E-01  0.6321E+00  0.6102E+00
     14.537  0.1442E-02  0.1711E-01  0.6324E+00  0.6138E+00
     14.750  0.1981E-01  0.3059E-01  0.6366E+00  0.6204E+00
     14.963  0.2450E-01  0.3768E-01  0.6418E+00  0.6284E+00
     15.176  0.1744E-01  0.1524E-01  0.6455E+00  0.6316E+00
     15.389  0.3014E-01  0.6111E-02  0.6520E+00  0.6329E+00
     15.602  0.2087E-01  0.1604E-01  0.6564E+00  0.6363E+00
     15.815  0.1584E-01  0.1724E-01  0.6598E+00  0.6400E+00
     16.028  0.2082E-01  0.1841E-01  0.6642E+00  0.6439E+00
     16.241  0.1465E-01  0.3246E-01  0.6673E+00  0.6509E+00
     16.454  0.7374E-02  0.3606E-01  0.6689E+00  0.6585E+00
     16.667  0.1309E-01  0.1143E-01  0.6717E+00  0.6610E+00
     16.880  0.2547E-01  0.1928E-01  0.6771E+00  0.6651E+00
     17.093  0.3459E-01  0.1618E-01  0.6845E+00  0.6685E+00
     17.306  0.2509E-01  0.5579E-02  0.6898E+00  0.6697E+00
     17.519  0.1450E-01  0.1676E-01  0.6929E+00  0.6733E+00
     17.732  0.1722E-01  0.3041E-01  0.6966E+00  0.6798E+00
     17.945  0.7564E-02  0.3347E-01  0.6982E+00  0.6869E+00
     18.158  0.1710E-01  0.2604E-01  0.7018E+00  0.6924E+00
     18.371  0.1137E-01  0.7326E-02  0.7043E+00  0.6940E+00
     18.584  0.2575E-01  0.1553E-01  0.7097E+00  0.6973E+00
     18.797  0.1473E-01  0.1808E-01  0.7129E+00  0.7012E+00
     19.010  0.1810E-01  0.1261E-01  0.7167E+00  0.7038E+00
     19.223  0.2263E-01  0.2475E-01  0.7216E+00  0.7091E+00
     19.436  0.3019E-01  0.1398E-01  0.7280E+00  0.7121E+00
     19.649  0.1207E-01  0.1478E-01  0.7306E+00  0.7152E+00
     19.862  0.1051E-01  0.2704E-01  0.7328E+00  0.7210E+00
     20.075  0.1429E-01  0.2766E-01  0.7358E+00  0.7269E+00
     20.289  0.2016E-01  0.1754E-01  0.7401E+00  0.7306E+00
     20.502  0.1022E-01  0.1180E-01  0.7423E+00  0.7331E+00
     20.715  0.1412E-01  0.1283E-01  0.7453E+00  0.7359E+00
     20.928  0.1439E-01  0.2064E-01  0.7484E+00  0.7403E+00
     21.141  0.1726E-01  0.1169E-01  0.7521E+00  0.7428E+00
     21.354  0.3669E-01  0.1583E-01  0.7599E+00  0.7461E+00
     21.567  0.2236E-01  0.1558E-01  0.7647E+00  0.7495E+00
     21.780  0.7064E-02  0.1720E-01  0.7662E+00  0.7531E+00
     21.993  0.2199E-01  0.3971E-01  0.7708E+00  0.7616E+00
     22.206  0.2668E-01  0.1017E-01  0.7765E+00  0.7637E+00
     22.419  0.1255E-01  0.1205E-01  0.7792E+00  0.7663E+00
     22.632  0.2084E-01  0.3560E-01  0.7836E+00  0.7739E+00
     22.845  0.2349E-01  0.1745E-01  0.7886E+00  0.7776E+00
     23.058  0.1907E-01  0.9211E-02  0.7927E+00  0.7796E+00
     23.271  0.2278E-01  0.2566E-01  0.7976E+00  0.7850E+00
     23.484  0.4400E-01  0.2936E-01  0.8069E+00  0.7913E+00
     23.697  0.3363E-01  0.2884E-01  0.8141E+00  0.7974E+00
     23.910  0.1178E-01  0.3127E-01  0.8166E+00  0.8041E+00
     24.123  0.1457E-01  0.3823E-01  0.8197E+00  0.8122E+00
     24.336  0.3980E-01  0.1743E-01  0.8282E+00  0.8160E+00
     24.549  0.3488E-01  0.1277E-01  0.8356E+00  0.8187E+00
     24.762  0.2252E-01  0.3930E-01  0.8404E+00  0.8270E+00
     24.975  0.1367E-01  0.4800E-01  0.8433E+00  0.8373E+00
     25.188  0.1161E-01  0.1198E-01  0.8458E+00  0.8398E+00
     25.401  0.2555E-01  0.1177E-01  0.8512E+00  0.8423E+00
     25.614  0.4779E-01  0.1297E-01  0.8614E+00  0.8451E+00
     25.827  0.3389E-01  0.2973E-01  0.8686E+00  0.8514E+00
     26.040  0.1150E-01  0.4399E-01  0.8711E+00  0.8608E+00
     26.253  0.1627E-01  0.3384E-01  0.8746E+00  0.8680E+00
     26.466  0.2687E-01  0.1068E-01  0.8803E+00  0.8703E+00
     26.679  0.2711E-01  0.2118E-01  0.8861E+00  0.8748E+00
     26.892  0.1962E-01  0.2525E-01  0.8902E+00  0.8802E+00
     27.105  0.1799E-01  0.2765E-01  0.8941E+00  0.8861E+00
     27.318  0.1710E-01  0.2175E-01  0.8977E+00  0.8907E+00
     27.531  0.1348E-01  0.1508E-01  0.9006E+00  0.8939E+00
     27.744  0.1346E-01  0.2359E-01  0.9034E+00  0.8989E+00
     27.957  0.2027E-01  0.8942E-02  0.9078E+00  0.9008E+00
     28.170  0.1174E-01  0.1126E-01  0.9103E+00  0.9032E+00
     28.383  0.1238E-01  0.1100E-01  0.9129E+00  0.9056E+00
     28.596  0.1964E-01  0.2003E-01  0.9171E+00  0.9098E+00
     28.809  0.1029E-01  0.2089E-01  0.9193E+00  0.9143E+00
     29.022  0.1195E-01  0.1205E-01  0.9218E+00  0.9169E+00
     29.235  0.2403E-01  0.6514E-02  0.9269E+00  0.9183E+00
     29.448  0.2232E-01  0.2138E-01  0.9317E+00  0.9228E+00
     29.661  0.2953E-01  0.2383E-01  0.9380E+00  0.9279E+00
     29.874  0.2373E-01  0.2146E-01  0.9430E+00  0.9325E+00
     30.087  0.2717E-01  0.4472E-01  0.9488E+00  0.9420E+00
     30.300  0.2176E-01  0.2878E-01  0.9535E+00  0.9481E+00
     30.513  0.2106E-01  0.2309E-01  0.9579E+00  0.9530E+00
     30.726  0.3289E-01  0.9388E-02  0.9650E+00  0.9550E+00
     30.939  0.2902E-01  0.5222E-02  0.9711E+00  0.9561E+00
     31.152  0.2900E-01  0.3851E-01  0.9773E+00  0.9643E+00
     31.365  0.2900E-01  0.4965E-01  0.9835E+00  0.9749E+00
     31.578  0.2277E-01  0.1988E-01  0.9883E+00  0.9792E+00
     31.791  0.1515E-01  0.1202E-01  0.9916E+00  0.9817E+00
     32.005  0.7228E-02  0.3668E-01  0.9931E+00  0.9895E+00
     32.218  0.6018E-02  0.1630E-01  0.9944E+00  0.9930E+00
     32.431  0.7534E-02  0.4183E-02  0.9960E+00  0.9939E+00
     32.644  0.1899E-01  0.5483E-02  0.1000E+01  0.9951E+00
     32.857  0.4632E-01  0.5590E-02  0.1010E+01  0.9963E+00
     33.070  0.4024E-01  0.2869E-01  0.1018E+01  0.1002E+01
     33.283  0.3487E-01  0.3671E-01  0.1026E+01  0.1010E+01
     33.496  0.3087E-01  0.3359E-01  0.1032E+01  0.1017E+01
     33.709  0.2568E-01  0.3228E-01  0.1038E+01  0.1024E+01
     33.922  0.2501E-01  0.4908E-01  0.1043E+01  0.1035E+01
     34.135  0.1570E-01  0.3378E-01  0.1047E+01  0.1042E+01
     34.348  0.1731E-01  0.1341E-01  0.1050E+01  0.1045E+01
     34.561  0.4063E-01  0.2208E-01  0.1059E+01  0.1049E+01
     34.774  0.1743E-01  0.1766E-01  0.1063E+01  0.1053E+01
     34.987  0.1794E-01  0.1454E-01  0.1066E+01  0.1056E+01
     35.200  0.1376E-01  0.1868E-01  0.1069E+01  0.1060E+01
     35.413  0.3937E-01  0.2725E-01  0.1078E+01  0.1066E+01
     35.626  0.3448E-01  0.3028E-01  0.1085E+01  0.1073E+01
     35.839  0.2805E-01  0.3766E-01  0.1091E+01  0.1081E+01
     36.052  0.3662E-01  0.3053E-01  0.1099E+01  0.1087E+01
     36.265  0.3106E-01  0.2210E-01  0.1106E+01  0.1092E+01
     36.478  0.6580E-02  0.2825E-01  0.1107E+01  0.1098E+01
     36.691  0.1913E-01  0.3208E-01  0.1111E+01  0.1105E+01
     36.904  0.3581E-01  0.1838E-01  0.1119E+01  0.1109E+01
     37.117  0.1758E-01  0.1435E-01  0.1122E+01  0.1112E+01
     37.330  0.3882E-01  0.2732E-01  0.1131E+01  0.1117E+01
     37.543  0.2963E-01  0.3817E-01  0.1137E+01  0.1126E+01
     37.756  0.9188E-02  0.2730E-01  0.1139E+01  0.1131E+01
     37.969  0.3863E-01  0.2688E-01  0.1147E+01  0.1137E+01
     38.182  0.3521E-01  0.3140E-01  0.1155E+01  0.1144E+01
     38.395  0.9782E-02  0.3474E-01  0.1157E+01  0.1151E+01
     38.608  0.1480E-01  0.1814E-01  0.1160E+01  0.1155E+01
     38.821  0.2267E-01  0.5731E-02  0.1165E+01  0.1156E+01
     39.034  0.3164E-01  0.1535E-01  0.1171E+01  0.1160E+01
     39.247  0.3600E-01  0.2916E-01  0.1179E+01  0.1166E+01
     39.460  0.2281E-01  0.2168E-01  0.1184E+01  0.1170E+01
     39.673  0.3204E-01  0.4228E-01  0.1191E+01  0.1179E+01
     39.886  0.3064E-01  0.3518E-01  0.1197E+01  0.1187E+01
     40.099  0.3126E-01  0.2823E-01  0.1204E+01  0.1193E+01
     40.312  0.3201E-01  0.2313E-01  0.1211E+01  0.1198E+01
     40.525  0.1347E-01  0.2699E-01  0.1214E+01  0.1204E+01
     40.738  0.2602E-01  0.2085E-01  0.1219E+01  0.1208E+01
     40.951  0.4224E-01  0.2870E-01  0.1228E+01  0.1214E+01
     41.164  0.2361E-01  0.2261E-01  0.1233E+01  0.1219E+01
     41.377  0.3342E-01  0.2878E-01  0.1240E+01  0.1225E+01
     41.590  0.3232E-01  0.3893E-01  0.1247E+01  0.1233E+01
     41.803  0.2407E-01  0.3457E-01  0.1252E+01  0.1241E+01
     42.016  0.2214E-01  0.4018E-01  0.1257E+01  0.1249E+01
     42.229  0.1204E-01  0.1639E-01  0.1260E+01  0.1253E+01
     42.442  0.2121E-01  0.9149E-02  0.1264E+01  0.1255E+01
     42.655  0.5910E-01  0.1315E-01  0.1277E+01  0.1257E+01
     42.868  0.4477E-01  0.4385E-01  0.1286E+01  0.1267E+01
     43.081  0.2582E-01  0.5036E-01  0.1292E+01  0.1278E+01
     43.294  0.4328E-01  0.3555E-01  0.1301E+01  0.1285E+01
     43.508  0.4028E-01  0.3061E-01  0.1310E+01  0.1292E+01
     43.721  0.2749E-01  0.4218E-01  0.1315E+01  0.1301E+01
     43.934  0.3349E-01  0.3814E-01  0.1323E+01  0.1309E+01
     44.147  0.1415E-01  0.2612E-01  0.1326E+01  0.1314E+01
     44.360  0.2734E-01  0.2464E-01  0.1331E+01  0.1320E+01
     44.573  0.2912E-01  0.1755E-01  0.1338E+01  0.1323E+01
     44.786  0.2548E-01  0.2639E-01  0.1343E+01  0.1329E+01
     44.999  0.1685E-01  0.3459E-01  0.1347E+01  0.1336E+01
     45.212  0.1341E-01  0.1764E-01  0.1350E+01  0.1340E+01
     45.425  0.2598E-01  0.2173E-01  0.1355E+01  0.1345E+01
     45.638  0.2668E-01  0.1232E-01  0.1361E+01  0.1347E+01
     45.851  0.3149E-01  0.2956E-01  0.1367E+01  0.1354E+01
     46.064  0.5806E-01  0.4576E-01  0.1380E+01  0.1363E+01
     46.277  0.5004E-01  0.2711E-01  0.1390E+01  0.1369E+01
     46.490  0.1502E-01  0.3041E-01  0.1394E+01  0.1376E+01
     46.703  0.8112E-02  0.5173E-01  0.1395E+01  0.1387E+01
     46.916  0.1964E-01  0.2676E-01  0.1400E+01  0.1392E+01
     47.129  0.3345E-01  0.7276E-02  0.1407E+01  0.1394E+01
     47.342  0.3548E-01  0.1995E-01  0.1414E+01  0.1398E+01
     47.555  0.5527E-01  0.2337E-01  0.1426E+01  0.1403E+01
     47.768  0.4814E-01  0.3477E-01  0.1436E+01  0.1411E+01
     47.981  0.2199E-01  0.5049E-01  0.1441E+01  0.1421E+01
     48.194  0.2087E-01  0.4900E-01  0.1445E+01  0.1432E+01
     48.407  0.2166E-01  0.2597E-01  0.1450E+01  0.1437E+01
     48.620  0.1963E-01  0.3590E-01  0.1454E+01  0.1445E+01
     48.833  0.2477E-01  0.3327E-01  0.1460E+01  0.1452E+01
     49.046  0.2142E-01  0.1995E-01  0.1464E+01  0.1456E+01
     49.259  0.2852E-01  0.3015E-02  0.1470E+01  0.1457E+01
     49.472  0.4440E-01  0.1949E-01  0.1480E+01  0.1461E+01
     49.685  0.3907E-01  0.3154E-01  0.1488E+01  0.1468E+01
     49.898  0.1734E-01  0.2654E-01  0.1492E+01  0.1473E+01
     50.111  0.2421E-01  0.3900E-01  0.1497E+01  0.1482E+01
     50.324  0.3203E-01  0.4329E-01  0.1504E+01  0.1491E+01
     50.537  0.2155E-01  0.1323E-01  0.1508E+01  0.1494E+01
     50.750  0.2205E-01  0.2592E-01  0.1513E+01  0.1499E+01
     50.963  0.3175E-01  0.2310E-01  0.1520E+01  0.1504E+01
     51.176  0.4560E-01  0.2687E-01  0.1529E+01  0.1510E+01
     51.389  0.4461E-01  0.3565E-01  0.1539E+01  0.1517E+01
     51.602  0.2913E-01  0.2001E-01  0.1545E+01  0.1522E+01
     51.815  0.2225E-01  0.3506E-01  0.1550E+01  0.1529E+01
     52.028  0.1375E-01  0.4558E-01  0.1553E+01  0.1539E+01
     52.241  0.2517E-01  0.2168E-01  0.1558E+01  0.1544E+01
     52.454  0.3635E-01  0.2054E-01  0.1566E+01  0.1548E+01
     52.667  0.3809E-01  0.2462E-01  0.1574E+01  0.1553E+01
     52.880  0.2139E-01  0.1806E-01  0.1579E+01  0.1557E+01
     53.093  0.1197E-01  0.3370E-01  0.1581E+01  0.1564E+01
     53.306  0.2468E-01  0.3788E-01  0.1586E+01  0.1572E+01
     53.519  0.1177E-01  0.3576E-01  0.1589E+01  0.1580E+01
     53.732  0.1076E-01  0.1902E-01  0.1591E+01  0.1584E+01
     53.945  0.2691E-01  0.1798E-01  0.1597E+01  0.1588E+01
     54.158  0.4236E-02  0.7267E-02  0.1598E+01  0.1589E+01
     54.371 -0.8117E-03  0.1071E-01  0.1598E+01  0.1592E+01
     54.584  0.1704E-03  0.9712E-02  0.1598E+01  0.1594E+01
     54.797  0.3988E-02  0.9551E-02  0.1598E+01  0.1596E+01
     55.011  0.1965E-02  0.1160E-01  0.1599E+01  0.1598E+01
     55.224  0.4053E-02  0.3125E-02  0.1600E+01  0.1599E+01
     55.437  0.1317E-02  0.9422E-03  0.1600E+01  0.1599E+01
     55.650 -0.1636E-03  0.4221E-02  0.1600E+01  0.1600E+01
     55.863 -0.6318E-05  0.3651E-03  0.1600E+01  0.1600E+01
     56.076 -0.1512E-07 -0.9271E-04  0.1600E+01  0.1600E+01
     56.289 -0.3235E-11 -0.1477E-05  0.1600E+01  0.1600E+01
     56.502 -0.6629E-16 -0.1760E-08  0.1600E+01  0.1600E+01
     56.715  0.0000E+00 -0.1934E-12  0.1600E+01  0.1600E+01
     56.928  0.0000E+00 -0.2502E-17  0.1600E+01  0.1600E+01
     57.141  0.0000E+00  0.0000E+00  0.1600E+01  0.1600E+01
     57.354  0.0000E+00  0.0000E+00  0.1600E+01  0.1600E+01
     57.567  0.0000E+00  0.0000E+00  0.1600E+01  0.1600E+01
     57.780  0.0000E+00  0.0000E+00  0.1600E+01  0.1600E+01
     57.993  0.0000E+00  0.0000E+00  0.1600E+01  0.1600E+01
     58.206  0.0000E+00  0.0000E+00  0.1600E+01  0.1600E+01
     58.419  0.0000E+00  0.0000E+00  0.1600E+01  0.1600E+01
