    2    2   20    2
  0.1169683E+02  0.2860000E-09  0.2860000E-09  0.2860000E-09  0.5000000E-15
  1.000000000000000E-004
  CAR 
 Fe Bulk                                 
     16    500     32
 
  0.5000000E-01  0.5000000E-01  0.5000000E-01  0.2000000E-02
    1       -2.581933     -2.418299   1.000000   1.000000
    2        0.925480      2.765785   1.000000   1.000000
    3        0.925480      2.765785   1.000000   1.000000
    4        3.226589      5.212042   1.000000   1.032393
    5        3.226589      5.212042   1.000000   1.032393
    6        3.348540      5.350802   1.000000   0.955869
    7        4.436612      7.180008   1.000000  -0.000000
    8        4.436613      7.180008   1.000000  -0.000000
    9        5.343744      7.563874   0.967972  -0.000000
   10        5.527738      7.798779   0.337631  -0.000000
   11        5.527738      7.798779   0.337631  -0.000000
   12       14.968512     15.347268   0.000000   0.000000
   13       14.968512     15.347268   0.000000   0.000000
   14       15.215671     15.564373   0.000000   0.000000
   15       21.392236     22.283338   0.000000   0.000000
   16       21.392236     22.283338   0.000000   0.000000
   17       26.112414     27.210320   0.000000   0.000000
   18       29.483344     29.355060   0.000000   0.000000
   19       29.483344     29.355060   0.000000   0.000000
   20       30.402543     30.135989   0.000000   0.000000
   21       34.664817     35.355200   0.000000   0.000000
   22       35.083848     35.355200   0.000000   0.000000
   23       35.083848     35.562188   0.000000   0.000000
   24       36.759868     37.495133   0.000000   0.000000
   25       36.759868     37.495133   0.000000   0.000000
   26       39.481154     40.368321   0.000000   0.000000
   27       39.481154     40.368321   0.000000   0.000000
   28       39.799369     40.723461   0.000000   0.000000
   29       43.874153     44.119287   0.000000   0.000000
   30       49.640411     50.307919   0.000000   0.000000
   31       51.094648     51.860972   0.000000   0.000000
   32       51.094648     51.860973   0.000000   0.000000
 
  0.1500000E+00  0.5000000E-01  0.5000000E-01  0.2000000E-02
    1       -2.185107     -2.018224   1.000000   1.000000
    2        1.088967      2.885757   1.000000   1.000000
    3        1.089874      2.960970   1.000000   1.000000
    4        3.170788      5.137943   1.000000   1.016301
    5        3.217531      5.188799   1.000000   1.027708
    6        3.512066      5.529307   1.000000   0.331424
    7        4.278379      6.969917   1.000000  -0.000000
    8        4.508503      7.091245   1.000000  -0.000000
    9        4.969282      7.269442   1.000745  -0.000000
   10        5.226763      7.405529   1.034487  -0.000000
   11        5.507366      7.778768   0.420740  -0.000000
   12       12.866542     13.524943   0.000000   0.000000
   13       15.661166     16.140882   0.000000   0.000000
   14       15.845199     16.286543   0.000000   0.000000
   15       21.555758     22.407304   0.000000   0.000000
   16       22.765391     23.476845   0.000000   0.000000
   17       27.475075     27.550273   0.000000   0.000000
   18       27.538936     28.556327   0.000000   0.000000
   19       28.763341     28.853673   0.000000   0.000000
   20       30.084804     29.974103   0.000000   0.000000
   21       33.019822     33.447584   0.000000   0.000000
   22       33.306875     34.013983   0.000000   0.000000
   23       34.948264     35.657683   0.000000   0.000000
   24       37.895971     38.093805   0.000000   0.000000
   25       37.989674     38.529679   0.000000   0.000000
   26       40.816521     41.604884   0.000000   0.000000
   27       41.950037     42.812492   0.000000   0.000000
   28       42.516415     42.880721   0.000000   0.000000
   29       42.564427     43.314423   0.000000   0.000000
   30       47.616069     48.157735   0.000000   0.000000
   31       48.217911     48.811752   0.000000   0.000000
   32       51.617500     52.496261   0.000000   0.000000
 
  0.2500000E+00  0.5000000E-01  0.5000000E-01  0.2000000E-02
    1       -1.431500     -1.249465   1.000000   1.000000
    2        1.340155      2.997747   1.000000   1.000000
    3        1.401488      3.335712   1.000000   1.000000
    4        3.168323      5.110074   1.000000   1.011143
    5        3.211484      5.165570   1.000000   1.022380
    6        3.747862      5.788192   1.000000  -0.027730
    7        3.986567      6.516369   1.000000  -0.000000
    8        4.490727      6.575529   1.000000  -0.000000
    9        4.642359      6.836188   1.000000  -0.000000
   10        4.762293      7.421575   1.000002  -0.000000
   11        5.335281      7.580511   0.980919  -0.000000
   12       10.361089     11.347716  -0.000000   0.000000
   13       16.887651     17.488601   0.000000   0.000000
   14       17.068538     17.614725   0.000000   0.000000
   15       21.910789     22.684472   0.000000   0.000000
   16       23.629435     24.261492   0.000000   0.000000
   17       25.429989     25.689886   0.000000   0.000000
   18       26.962960     27.359650   0.000000   0.000000
   19       28.675280     28.899598   0.000000   0.000000
   20       30.566903     31.142108   0.000000   0.000000
   21       30.679998     31.435133   0.000000   0.000000
   22       33.382528     33.854597   0.000000   0.000000
   23       34.942160     35.381641   0.000000   0.000000
   24       38.489591     39.070149   0.000000   0.000000
   25       40.870619     41.255976   0.000000   0.000000
   26       41.618706     41.688180   0.000000   0.000000
   27       42.398740     43.050972   0.000000   0.000000
   28       44.959967     45.787484   0.000000   0.000000
   29       45.340834     45.804268   0.000000   0.000000
   30       45.356460     45.857712   0.000000   0.000000
   31       45.913047     46.641235   0.000000   0.000000
   32       50.370342     51.065384   0.000000   0.000000
 
  0.3500000E+00  0.5000000E-01  0.5000000E-01  0.2000000E-02
    1       -0.423237     -0.184170   1.000000   1.000000
    2        1.506061      2.838259   1.000000   1.000000
    3        1.833614      3.856266   1.000000   1.000000
    4        3.168843      5.156292   1.000000   1.020265
    5        3.246117      5.162271   1.000000   1.021622
    6        3.666088      5.999018   1.000000  -0.000913
    7        4.030712      6.070696   1.000000  -0.000152
    8        4.047472      6.120680   1.000000  -0.000037
    9        4.283922      6.288002   1.000000  -0.000000
   10        4.859796      7.269754   1.000041  -0.000000
   11        5.061192      7.608761   1.005014  -0.000000
   12        8.089442      9.539616  -0.000000  -0.000000
   13       18.448502     19.138386   0.000000   0.000000
   14       18.672801     19.293547   0.000000   0.000000
   15       22.519286     23.183532   0.000000   0.000000
   16       23.586090     24.039375   0.000000   0.000000
   17       24.303515     24.853832   0.000000   0.000000
   18       24.749843     25.298880   0.000000   0.000000
   19       26.734532     27.139800   0.000000   0.000000
   20       28.473026     28.933430   0.000000   0.000000
   21       34.395015     34.796374   0.000000   0.000000
   22       34.452651     35.205404   0.000000   0.000000
   23       36.117662     36.434005   0.000000   0.000000
   24       39.156663     39.618874   0.000000   0.000000
   25       39.183194     39.684065   0.000000   0.000000
   26       42.643982     43.070321   0.000000   0.000000
   27       43.248967     43.675046   0.000000   0.000000
   28       43.695595     44.234888   0.000000   0.000000
   29       45.766579     45.853717   0.000000   0.000000
   30       47.688024     48.476732   0.000000   0.000000
   31       48.730598     49.322056   0.000000   0.000000
   32       49.509393     50.277767   0.000000   0.000000
 
  0.4500000E+00  0.5000000E-01  0.5000000E-01  0.2000000E-02
    1        0.616405      1.036769   1.000000   1.000000
    2        1.325166      2.154952   1.000000   1.000000
    3        2.339452      4.461065   1.000000   1.000000
    4        2.845506      4.996533   1.000000   1.001382
    5        3.419166      5.326081   1.000000   0.993130
    6        3.640797      5.607056   1.000000   0.083350
    7        3.674408      5.727640   1.000000  -0.035321
    8        3.889567      5.876342   1.000000  -0.009688
    9        4.384943      6.503508   1.000000  -0.000000
   10        4.730906      6.898745   1.000001  -0.000000
   11        5.315547      7.867203   1.004854  -0.000000
   12        6.341596      8.401934  -0.000000  -0.000000
   13       20.158231     20.871681   0.000000   0.000000
   14       20.530983     21.177708   0.000000   0.000000
   15       21.871826     22.500470   0.000000   0.000000
   16       22.569811     23.191125   0.000000   0.000000
   17       23.483350     24.032088   0.000000   0.000000
   18       24.904358     25.376125   0.000000   0.000000
   19       25.236255     25.717022   0.000000   0.000000
   20       26.620699     27.074857   0.000000   0.000000
   21       35.812292     36.228494   0.000000   0.000000
   22       37.290426     37.745328   0.000000   0.000000
   23       37.929441     38.244703   0.000000   0.000000
   24       38.911550     39.571263   0.000000   0.000000
   25       40.056305     40.505252   0.000000   0.000000
   26       40.143521     40.532393   0.000000   0.000000
   27       41.568714     42.004580   0.000000   0.000000
   28       43.090207     43.654750   0.000000   0.000000
   29       46.109598     46.786438   0.000000   0.000000
   30       47.184200     47.757063   0.000000   0.000000
   31       50.260131     50.422687   0.000000   0.000000
   32       52.427083     53.231520   0.000000   0.000000
 
 -0.4500000E+00  0.5000000E-01  0.5000000E-01  0.2000000E-02
    1        0.616405      1.036769   1.000000   1.000000
    2        1.325166      2.154952   1.000000   1.000000
    3        2.339452      4.461065   1.000000   1.000000
    4        2.845506      4.996533   1.000000   1.001382
    5        3.419166      5.326081   1.000000   0.993130
    6        3.640797      5.607056   1.000000   0.083350
    7        3.674408      5.727640   1.000000  -0.035321
    8        3.889567      5.876342   1.000000  -0.009688
    9        4.384943      6.503508   1.000000  -0.000000
   10        4.730906      6.898745   1.000001  -0.000000
   11        5.315547      7.867203   1.004854  -0.000000
   12        6.341596      8.401934  -0.000000  -0.000000
   13       20.158231     20.871681   0.000000   0.000000
   14       20.530983     21.177708   0.000000   0.000000
   15       21.871826     22.500470   0.000000   0.000000
   16       22.569811     23.191125   0.000000   0.000000
   17       23.483350     24.032088   0.000000   0.000000
   18       24.904358     25.376125   0.000000   0.000000
   19       25.236255     25.717022   0.000000   0.000000
   20       26.620699     27.074857   0.000000   0.000000
   21       35.812292     36.228494   0.000000   0.000000
   22       37.290426     37.745328   0.000000   0.000000
   23       37.929441     38.244703   0.000000   0.000000
   24       38.911550     39.571263   0.000000   0.000000
   25       40.056305     40.505252   0.000000   0.000000
   26       40.143521     40.532393   0.000000   0.000000
   27       41.568713     42.004580   0.000000   0.000000
   28       43.090207     43.654750   0.000000   0.000000
   29       46.109598     46.786438   0.000000   0.000000
   30       47.184201     47.757063   0.000000   0.000000
   31       50.260131     50.422687   0.000000   0.000000
   32       52.427083     53.231520   0.000000   0.000000
 
 -0.3500000E+00  0.5000000E-01  0.5000000E-01  0.2000000E-02
    1       -0.423237     -0.184170   1.000000   1.000000
    2        1.506061      2.838259   1.000000   1.000000
    3        1.833614      3.856266   1.000000   1.000000
    4        3.168843      5.156292   1.000000   1.020265
    5        3.246117      5.162271   1.000000   1.021622
    6        3.666088      5.999018   1.000000  -0.000913
    7        4.030712      6.070696   1.000000  -0.000152
    8        4.047472      6.120680   1.000000  -0.000037
    9        4.283922      6.288002   1.000000  -0.000000
   10        4.859796      7.269754   1.000041  -0.000000
   11        5.061192      7.608761   1.005014  -0.000000
   12        8.089442      9.539616  -0.000000  -0.000000
   13       18.448502     19.138386   0.000000   0.000000
   14       18.672801     19.293547   0.000000   0.000000
   15       22.519286     23.183532   0.000000   0.000000
   16       23.586090     24.039375   0.000000   0.000000
   17       24.303515     24.853832   0.000000   0.000000
   18       24.749842     25.298880   0.000000   0.000000
   19       26.734532     27.139800   0.000000   0.000000
   20       28.473026     28.933430   0.000000   0.000000
   21       34.395015     34.796374   0.000000   0.000000
   22       34.452651     35.205404   0.000000   0.000000
   23       36.117662     36.434005   0.000000   0.000000
   24       39.156663     39.618874   0.000000   0.000000
   25       39.183194     39.684065   0.000000   0.000000
   26       42.643982     43.070321   0.000000   0.000000
   27       43.248967     43.675046   0.000000   0.000000
   28       43.695595     44.234889   0.000000   0.000000
   29       45.766579     45.853717   0.000000   0.000000
   30       47.688024     48.476732   0.000000   0.000000
   31       48.730598     49.322056   0.000000   0.000000
   32       49.509393     50.277766   0.000000   0.000000
 
 -0.2500000E+00  0.5000000E-01  0.5000000E-01  0.2000000E-02
    1       -1.431500     -1.249465   1.000000   1.000000
    2        1.340155      2.997747   1.000000   1.000000
    3        1.401488      3.335712   1.000000   1.000000
    4        3.168323      5.110074   1.000000   1.011143
    5        3.211484      5.165570   1.000000   1.022380
    6        3.747862      5.788192   1.000000  -0.027730
    7        3.986567      6.516369   1.000000  -0.000000
    8        4.490727      6.575529   1.000000  -0.000000
    9        4.642359      6.836188   1.000000  -0.000000
   10        4.762293      7.421575   1.000002  -0.000000
   11        5.335281      7.580511   0.980919  -0.000000
   12       10.361089     11.347716  -0.000000   0.000000
   13       16.887651     17.488601   0.000000   0.000000
   14       17.068538     17.614725   0.000000   0.000000
   15       21.910789     22.684472   0.000000   0.000000
   16       23.629435     24.261492   0.000000   0.000000
   17       25.429989     25.689886   0.000000   0.000000
   18       26.962960     27.359650   0.000000   0.000000
   19       28.675280     28.899598   0.000000   0.000000
   20       30.566903     31.142108   0.000000   0.000000
   21       30.679998     31.435133   0.000000   0.000000
   22       33.382528     33.854597   0.000000   0.000000
   23       34.942160     35.381641   0.000000   0.000000
   24       38.489591     39.070149   0.000000   0.000000
   25       40.870619     41.255976   0.000000   0.000000
   26       41.618706     41.688180   0.000000   0.000000
   27       42.398740     43.050972   0.000000   0.000000
   28       44.959967     45.787484   0.000000   0.000000
   29       45.340834     45.804268   0.000000   0.000000
   30       45.356460     45.857712   0.000000   0.000000
   31       45.913047     46.641235   0.000000   0.000000
   32       50.370342     51.065384   0.000000   0.000000
 
 -0.1500000E+00  0.5000000E-01  0.5000000E-01  0.2000000E-02
    1       -2.185107     -2.018224   1.000000   1.000000
    2        1.088967      2.885757   1.000000   1.000000
    3        1.089874      2.960970   1.000000   1.000000
    4        3.170788      5.137943   1.000000   1.016301
    5        3.217531      5.188799   1.000000   1.027708
    6        3.512066      5.529307   1.000000   0.331424
    7        4.278379      6.969917   1.000000  -0.000000
    8        4.508503      7.091245   1.000000  -0.000000
    9        4.969282      7.269442   1.000745  -0.000000
   10        5.226763      7.405529   1.034487  -0.000000
   11        5.507366      7.778768   0.420740  -0.000000
   12       12.866542     13.524943   0.000000   0.000000
   13       15.661166     16.140882   0.000000   0.000000
   14       15.845199     16.286543   0.000000   0.000000
   15       21.555758     22.407304   0.000000   0.000000
   16       22.765391     23.476845   0.000000   0.000000
   17       27.475074     27.550273   0.000000   0.000000
   18       27.538936     28.556327   0.000000   0.000000
   19       28.763341     28.853673   0.000000   0.000000
   20       30.084804     29.974103   0.000000   0.000000
   21       33.019822     33.447584   0.000000   0.000000
   22       33.306875     34.013983   0.000000   0.000000
   23       34.948264     35.657683   0.000000   0.000000
   24       37.895971     38.093805   0.000000   0.000000
   25       37.989674     38.529679   0.000000   0.000000
   26       40.816521     41.604884   0.000000   0.000000
   27       41.950037     42.812492   0.000000   0.000000
   28       42.516415     42.880721   0.000000   0.000000
   29       42.564427     43.314423   0.000000   0.000000
   30       47.616069     48.157735   0.000000   0.000000
   31       48.217911     48.811752   0.000000   0.000000
   32       51.617500     52.496261   0.000000   0.000000
 
 -0.5000000E-01  0.5000000E-01  0.5000000E-01  0.2000000E-02
    1       -2.581933     -2.418299   1.000000   1.000000
    2        0.925480      2.765785   1.000000   1.000000
    3        0.925480      2.765785   1.000000   1.000000
    4        3.226589      5.212042   1.000000   1.032393
    5        3.226589      5.212042   1.000000   1.032393
    6        3.348540      5.350802   1.000000   0.955869
    7        4.436612      7.180008   1.000000  -0.000000
    8        4.436613      7.180008   1.000000  -0.000000
    9        5.343744      7.563874   0.967972  -0.000000
   10        5.527738      7.798779   0.337631  -0.000000
   11        5.527738      7.798779   0.337631  -0.000000
   12       14.968512     15.347268   0.000000   0.000000
   13       14.968512     15.347268   0.000000   0.000000
   14       15.215671     15.564373   0.000000   0.000000
   15       21.392236     22.283338   0.000000   0.000000
   16       21.392236     22.283338   0.000000   0.000000
   17       26.112414     27.210320   0.000000   0.000000
   18       29.483344     29.355060   0.000000   0.000000
   19       29.483344     29.355060   0.000000   0.000000
   20       30.402543     30.135989   0.000000   0.000000
   21       34.664817     35.355200   0.000000   0.000000
   22       35.083848     35.355200   0.000000   0.000000
   23       35.083848     35.562188   0.000000   0.000000
   24       36.759868     37.495133   0.000000   0.000000
   25       36.759868     37.495133   0.000000   0.000000
   26       39.481154     40.368321   0.000000   0.000000
   27       39.481154     40.368321   0.000000   0.000000
   28       39.799369     40.723461   0.000000   0.000000
   29       43.874153     44.119287   0.000000   0.000000
   30       49.640411     50.307919   0.000000   0.000000
   31       51.094648     51.860972   0.000000   0.000000
   32       51.094648     51.860973   0.000000   0.000000
 
  0.5000000E-01  0.1500000E+00  0.5000000E-01  0.2000000E-02
    1       -2.185107     -2.018224   1.000000   1.000000
    2        1.088967      2.885757   1.000000   1.000000
    3        1.089874      2.960970   1.000000   1.000000
    4        3.170788      5.137943   1.000000   1.016301
    5        3.217531      5.188799   1.000000   1.027708
    6        3.512066      5.529307   1.000000   0.331424
    7        4.278379      6.969917   1.000000  -0.000000
    8        4.508503      7.091245   1.000000  -0.000000
    9        4.969282      7.269442   1.000745  -0.000000
   10        5.226763      7.405529   1.034487  -0.000000
   11        5.507366      7.778768   0.420740  -0.000000
   12       12.866542     13.524943   0.000000   0.000000
   13       15.661166     16.140882   0.000000   0.000000
   14       15.845199     16.286543   0.000000   0.000000
   15       21.555758     22.407304   0.000000   0.000000
   16       22.765391     23.476845   0.000000   0.000000
   17       27.475075     27.550273   0.000000   0.000000
   18       27.538936     28.556327   0.000000   0.000000
   19       28.763341     28.853673   0.000000   0.000000
   20       30.084804     29.974103   0.000000   0.000000
   21       33.019822     33.447584   0.000000   0.000000
   22       33.306875     34.013983   0.000000   0.000000
   23       34.948264     35.657683   0.000000   0.000000
   24       37.895972     38.093805   0.000000   0.000000
   25       37.989674     38.529679   0.000000   0.000000
   26       40.816521     41.604884   0.000000   0.000000
   27       41.950037     42.812492   0.000000   0.000000
   28       42.516415     42.880721   0.000000   0.000000
   29       42.564427     43.314423   0.000000   0.000000
   30       47.616069     48.157735   0.000000   0.000000
   31       48.217911     48.811752   0.000000   0.000000
   32       51.617500     52.496261   0.000000   0.000000
 
  0.1500000E+00  0.1500000E+00  0.5000000E-01  0.2000000E-02
    1       -1.803295     -1.630182   1.000000   1.000000
    2        1.217832      3.068900   1.000000   1.000000
    3        1.273913      3.076104   1.000000   1.000000
    4        3.023673      4.965342   1.000000   1.000679
    5        3.162755      5.113428   1.000000   1.011700
    6        3.774702      5.816470   1.000000  -0.021244
    7        4.302323      6.534196   1.000000  -0.000000
    8        4.466021      6.982825   1.000000  -0.000000
    9        4.508275      7.142334   1.000000  -0.000000
   10        5.012806      7.214725   1.001957  -0.000000
   11        5.573612      7.852749   0.173615  -0.000000
   12       12.950810     13.683004   0.000000   0.000000
   13       14.022548     14.760501   0.000000   0.000000
   14       16.379707     16.887155   0.000000   0.000000
   15       22.250279     22.995243   0.000000   0.000000
   16       24.185222     24.738179   0.000000   0.000000
   17       25.682185     25.983202   0.000000   0.000000
   18       27.862512     27.961894   0.000000   0.000000
   19       28.517838     29.522002   0.000000   0.000000
   20       30.323693     30.218754   0.000000   0.000000
   21       31.229199     32.058273   0.000000   0.000000
   22       34.414620     34.824859   0.000000   0.000000
   23       34.556525     35.116386   0.000000   0.000000
   24       37.559166     37.812441   0.000000   0.000000
   25       39.076022     39.607804   0.000000   0.000000
   26       40.758446     41.140587   0.000000   0.000000
   27       42.884303     43.686412   0.000000   0.000000
   28       42.971864     43.729915   0.000000   0.000000
   29       44.375943     44.999240   0.000000   0.000000
   30       45.579966     46.078343   0.000000   0.000000
   31       49.319546     49.891580   0.000000   0.000000
   32       51.785243     52.509234   0.000000   0.000000
 
  0.2500000E+00  0.1500000E+00  0.5000000E-01  0.2000000E-02
    1       -1.087245     -0.888904   1.000000   1.000000
    2        1.427589      3.162657   1.000000   1.000000
    3        1.587035      3.417724   1.000000   1.000000
    4        2.922478      4.834560   1.000000   1.000019
    5        3.109908      5.025959   1.000000   1.002563
    6        4.007497      5.960793   1.000000  -0.002104
    7        4.094041      6.169021   1.000000  -0.000008
    8        4.155807      6.669115   1.000000  -0.000000
    9        4.575248      6.751908   1.000000  -0.000000
   10        4.600404      7.341097   1.000000  -0.000000
   11        5.529574      7.801476   0.330370  -0.000000
   12       10.758218     11.768484  -0.000000   0.000000
   13       14.725958     15.555501   0.000000   0.000000
   14       17.492408     18.072611   0.000000   0.000000
   15       22.671070     23.333714   0.000000   0.000000
   16       23.435410     23.915310   0.000000   0.000000
   17       25.593104     26.066060   0.000000   0.000000
   18       26.417729     26.686546   0.000000   0.000000
   19       29.129332     29.397926   0.000000   0.000000
   20       30.782927     31.330702   0.000000   0.000000
   21       31.037373     31.924150   0.000000   0.000000
   22       33.401244     33.795148   0.000000   0.000000
   23       34.377469     34.830551   0.000000   0.000000
   24       38.738062     39.169374   0.000000   0.000000
   25       40.159795     40.395086   0.000000   0.000000
   26       40.371671     40.841892   0.000000   0.000000
   27       43.185010     43.652456   0.000000   0.000000
   28       44.698410     45.257155   0.000000   0.000000
   29       45.200302     46.035065   0.000000   0.000000
   30       47.391946     47.950262   0.000000   0.000000
   31       48.009814     48.497790   0.000000   0.000000
   32       52.502529     53.390410   0.000000   0.000000
 
  0.3500000E+00  0.1500000E+00  0.5000000E-01  0.2000000E-02
    1       -0.156292      0.126462   1.000000   1.000000
    2        1.562357      2.971105   1.000000   1.000000
    3        1.967279      3.866075   1.000000   1.000000
    4        2.899842      4.798862   1.000000   1.000006
    5        3.047349      4.935468   1.000000   1.000326
    6        3.582616      5.503181   1.000000   0.438245
    7        3.978771      6.306813   1.000000  -0.000000
    8        4.228026      6.418090   1.000000  -0.000000
    9        4.446620      6.562263   1.000000  -0.000000
   10        4.807189      7.543211   1.000008  -0.000000
   11        5.345747      7.593481   0.964660  -0.000000
   12        8.452954      9.861375  -0.000000  -0.000000
   13       16.059716     16.917265   0.000000   0.000000
   14       18.972902     19.609011   0.000000   0.000000
   15       21.317054     21.948363   0.000000   0.000000
   16       23.273002     23.832816   0.000000   0.000000
   17       24.468739     24.912643   0.000000   0.000000
   18       26.605727     27.046727   0.000000   0.000000
   19       27.270445     27.652437   0.000000   0.000000
   20       30.522340     30.970087   0.000000   0.000000
   21       32.598708     33.016212   0.000000   0.000000
   22       34.459091     35.161928   0.000000   0.000000
   23       35.266441     35.658332   0.000000   0.000000
   24       37.035471     37.545376   0.000000   0.000000
   25       40.994889     41.449662   0.000000   0.000000
   26       41.428074     41.853877   0.000000   0.000000
   27       43.811352     44.040844   0.000000   0.000000
   28       46.015284     46.445954   0.000000   0.000000
   29       46.039125     46.522154   0.000000   0.000000
   30       47.751038     48.525590   0.000000   0.000000
   31       49.910075     50.688704   0.000000   0.000000
   32       51.264079     51.945666   0.000000   0.000000
 
  0.4500000E+00  0.1500000E+00  0.5000000E-01  0.2000000E-02
    1        0.758132      1.269443   1.000000   1.000000
    2        1.373676      2.305285   1.000000   1.000000
    3        2.380421      4.339745   1.000000   1.000000
    4        2.749225      4.705774   1.000000   1.000000
    5        3.080128      4.941693   1.000000   1.000382
    6        3.280515      5.166115   1.000000   1.022505
    7        3.948762      6.159053   1.000000  -0.000011
    8        4.022807      6.185155   1.000000  -0.000005
    9        4.758407      6.953285   1.000002  -0.000000
   10        5.067447      7.296684   1.005602  -0.000000
   11        5.377407      7.850373   0.899133  -0.000000
   12        6.585427      8.536308  -0.000000  -0.000000
   13       17.625607     18.454339   0.000000   0.000000
   14       19.379352     20.129791   0.000000   0.000000
   15       20.684399     21.327287   0.000000   0.000000
   16       22.528362     23.102885   0.000000   0.000000
   17       24.199965     24.662606   0.000000   0.000000
   18       25.544382     25.953656   0.000000   0.000000
   19       27.732432     28.147887   0.000000   0.000000
   20       29.121227     29.532369   0.000000   0.000000
   21       33.463538     33.915632   0.000000   0.000000
   22       34.810389     35.269636   0.000000   0.000000
   23       36.708096     37.100836   0.000000   0.000000
   24       37.961730     38.454018   0.000000   0.000000
   25       40.114735     40.726381   0.000000   0.000000
   26       42.516526     42.937397   0.000000   0.000000
   27       43.781016     44.339756   0.000000   0.000000
   28       44.224459     44.635877   0.000000   0.000000
   29       48.086249     48.758474   0.000000   0.000000
   30       48.684462     48.945971   0.000000   0.000000
   31       49.614521     50.205915   0.000000   0.000000
   32       52.570777     53.362982   0.000000   0.000000
 
 -0.4500000E+00  0.1500000E+00  0.5000000E-01  0.2000000E-02
    1        0.758132      1.269443   1.000000   1.000000
    2        1.373676      2.305285   1.000000   1.000000
    3        2.380421      4.339745   1.000000   1.000000
    4        2.749225      4.705774   1.000000   1.000000
    5        3.080128      4.941693   1.000000   1.000382
    6        3.280515      5.166115   1.000000   1.022505
    7        3.948762      6.159053   1.000000  -0.000011
    8        4.022807      6.185155   1.000000  -0.000005
    9        4.758407      6.953285   1.000002  -0.000000
   10        5.067447      7.296683   1.005602  -0.000000
   11        5.377407      7.850373   0.899133  -0.000000
   12        6.585427      8.536308  -0.000000  -0.000000
   13       17.625607     18.454339   0.000000   0.000000
   14       19.379352     20.129791   0.000000   0.000000
   15       20.684399     21.327287   0.000000   0.000000
   16       22.528362     23.102885   0.000000   0.000000