       N       E                     dE             d eps       ncg     rms          rms(c)
DAV:   1    -0.252781565936E+01   -0.25278E+01   -0.85289E+03 64064   0.628E+02
DAV:   2    -0.184653394778E+02   -0.15938E+02   -0.15696E+02 88832   0.487E+01
DAV:   3    -0.184843986817E+02   -0.19059E-01   -0.19043E-01 68704   0.203E+00
DAV:   4    -0.184844154774E+02   -0.16796E-04   -0.16796E-04116160   0.364E-02
DAV:   5    -0.184844154786E+02   -0.12101E-08   -0.69207E-10 70144   0.541E-05    0.158E+01
DAV:   6    -0.164453884371E+02    0.20390E+01   -0.33487E+01 87904   0.349E+01    0.975E+00
DAV:   7    -0.164201939070E+02    0.25195E-01   -0.27548E+00 75712   0.894E+00    0.453E+00
DAV:   8    -0.164709183365E+02   -0.50724E-01   -0.11293E-01100960   0.120E+00    0.256E+00
DAV:   9    -0.164602210550E+02    0.10697E-01   -0.31920E-02 95616   0.689E-01    0.132E+00
DAV:  10    -0.164567799738E+02    0.34411E-02   -0.29561E-02 92768   0.706E-01    0.940E-01
DAV:  11    -0.164617768506E+02   -0.49969E-02   -0.92384E-03 91328   0.383E-01    0.489E-02
DAV:  12    -0.164618224189E+02   -0.45568E-04   -0.12785E-04 76544   0.531E-02    0.297E-02
DAV:  13    -0.164618212402E+02    0.11787E-05   -0.35759E-05 61632   0.376E-02
   1 F= -.16461821E+02 E0= -.16461421E+02  d E =-.164618E+02  mag=     4.4884
