       N       E                     dE             d eps       ncg     rms          rms(c)
DAV:   1    -0.927247221954E+01   -0.92725E+01   -0.68926E+03 65344   0.477E+02
DAV:   2    -0.184699271454E+02   -0.91975E+01   -0.90149E+01 86368   0.366E+01
DAV:   3    -0.184814512492E+02   -0.11524E-01   -0.11517E-01 73856   0.136E+00
DAV:   4    -0.184814601386E+02   -0.88894E-05   -0.88893E-05111104   0.220E-02
DAV:   5    -0.184814601387E+02   -0.94815E-10   -0.19110E-09 75392   0.408E-05    0.157E+01
DAV:   6    -0.164417431696E+02    0.20397E+01   -0.33286E+01 86560   0.342E+01    0.977E+00
DAV:   7    -0.164278242154E+02    0.13919E-01   -0.27383E+00 78400   0.875E+00    0.454E+00
DAV:   8    -0.164787544450E+02   -0.50930E-01   -0.11501E-01 98176   0.120E+00    0.259E+00
DAV:   9    -0.164678001858E+02    0.10954E-01   -0.31099E-02 94368   0.673E-01    0.133E+00
DAV:  10    -0.164648708616E+02    0.29293E-02   -0.30520E-02 92096   0.718E-01    0.959E-01
DAV:  11    -0.164701087716E+02   -0.52379E-02   -0.95078E-03 93952   0.383E-01    0.468E-02
DAV:  12    -0.164701592391E+02   -0.50468E-04   -0.15379E-04 77600   0.640E-02    0.378E-02
DAV:  13    -0.164701561713E+02    0.30678E-05   -0.56204E-05 58848   0.464E-02
   1 F= -.16470156E+02 E0= -.16469750E+02  d E =-.164702E+02  mag=     4.4890
