       N       E                     dE             d eps       ncg     rms          rms(c)
DAV:   1    -0.120879910162E+02   -0.12088E+02   -0.62959E+03 68800   0.414E+02
DAV:   2    -0.184721325173E+02   -0.63841E+01   -0.62130E+01 82944   0.298E+01
DAV:   3    -0.184803353175E+02   -0.82028E-02   -0.81992E-02 81120   0.110E+00
DAV:   4    -0.184803397979E+02   -0.44805E-05   -0.44810E-05104096   0.134E-02
DAV:   5    -0.184803397987E+02   -0.77080E-09   -0.16469E-10 82464   0.210E-05    0.156E+01
DAV:   6    -0.164437799502E+02    0.20366E+01   -0.32969E+01 85280   0.324E+01    0.963E+00
DAV:   7    -0.164374336312E+02    0.63463E-02   -0.26744E+00 79488   0.823E+00    0.448E+00
DAV:   8    -0.164876616846E+02   -0.50228E-01   -0.11681E-01 97888   0.116E+00    0.259E+00
DAV:   9    -0.164767715098E+02    0.10890E-01   -0.29457E-02 92896   0.631E-01    0.133E+00
DAV:  10    -0.164738880936E+02    0.28834E-02   -0.30040E-02 91008   0.673E-01    0.934E-01
DAV:  11    -0.164789929844E+02   -0.51049E-02   -0.93699E-03 94656   0.362E-01    0.456E-02
DAV:  12    -0.164790391014E+02   -0.46117E-04   -0.10685E-04 76864   0.420E-02    0.247E-02
DAV:  13    -0.164790416285E+02   -0.25271E-05   -0.28338E-05 53568   0.312E-02
   1 F= -.16479042E+02 E0= -.16478634E+02  d E =-.164790E+02  mag=     4.4885
