       N       E                     dE             d eps       ncg     rms          rms(c)
DAV:   1    -0.468313941834E+01   -0.46831E+01   -0.80244E+03 64128   0.579E+02
DAV:   2    -0.184656472767E+02   -0.13783E+02   -0.13577E+02 87104   0.453E+01
DAV:   3    -0.184840286699E+02   -0.18381E-01   -0.18367E-01 70816   0.194E+00
DAV:   4    -0.184840444469E+02   -0.15777E-04   -0.15777E-04113920   0.344E-02
DAV:   5    -0.184840444471E+02   -0.24011E-09   -0.18627E-09 72704   0.520E-05    0.158E+01
DAV:   6    -0.164349213600E+02    0.20491E+01   -0.33483E+01 87680   0.348E+01    0.974E+00
DAV:   7    -0.164182767968E+02    0.16645E-01   -0.27596E+00 75136   0.893E+00    0.453E+00
DAV:   8    -0.164695398291E+02   -0.51263E-01   -0.11368E-01100160   0.121E+00    0.256E+00
DAV:   9    -0.164587786183E+02    0.10761E-01   -0.31587E-02 95488   0.689E-01    0.132E+00
DAV:  10    -0.164557309403E+02    0.30477E-02   -0.30309E-02 91456   0.733E-01    0.961E-01
DAV:  11    -0.164609918562E+02   -0.52609E-02   -0.94962E-03 90720   0.389E-01    0.472E-02
DAV:  12    -0.164610419714E+02   -0.50115E-04   -0.15355E-04 79168   0.647E-02    0.372E-02
DAV:  13    -0.164610393706E+02    0.26008E-05   -0.53920E-05 62976   0.462E-02
   1 F= -.16461039E+02 E0= -.16460639E+02  d E =-.164610E+02  mag=     4.4886
