       N       E                     dE             d eps       ncg     rms          rms(c)
DAV:   1     0.144073030838E+01    0.14407E+01   -0.94573E+03 64000   0.719E+02
DAV:   2    -0.184605473559E+02   -0.19901E+02   -0.19600E+02 88576   0.549E+01
DAV:   3    -0.184844477086E+02   -0.23900E-01   -0.23874E-01 69664   0.235E+00
DAV:   4    -0.184844682292E+02   -0.20521E-04   -0.20521E-04115168   0.427E-02
DAV:   5    -0.184844682300E+02   -0.79513E-09   -0.87650E-10 70848   0.635E-05    0.158E+01
DAV:   6    -0.164447338758E+02    0.20397E+01   -0.33506E+01 88864   0.352E+01    0.975E+00
DAV:   7    -0.164192373462E+02    0.25497E-01   -0.27577E+00 75936   0.904E+00    0.453E+00
DAV:   8    -0.164700221134E+02   -0.50785E-01   -0.11303E-01100416   0.122E+00    0.256E+00
DAV:   9    -0.164593407262E+02    0.10681E-01   -0.32010E-02 95744   0.697E-01    0.132E+00
DAV:  10    -0.164558905018E+02    0.34502E-02   -0.29548E-02 92544   0.713E-01    0.939E-01
DAV:  11    -0.164608905759E+02   -0.50001E-02   -0.92464E-03 90944   0.387E-01    0.494E-02
DAV:  12    -0.164609395423E+02   -0.48966E-04   -0.16951E-04 78912   0.696E-02    0.399E-02
DAV:  13    -0.164609342676E+02    0.52747E-05   -0.64342E-05 59424   0.508E-02
   1 F= -.16460934E+02 E0= -.16460535E+02  d E =-.164609E+02  mag=     4.4883
