       N       E                     dE             d eps       ncg     rms          rms(c)
DAV:   1    -0.687577181326E+01   -0.68758E+01   -0.74605E+03 64352   0.529E+02
DAV:   2    -0.184673578536E+02   -0.11592E+02   -0.11406E+02 86656   0.414E+01
DAV:   3    -0.184826480441E+02   -0.15290E-01   -0.15278E-01 71904   0.167E+00
DAV:   4    -0.184826605972E+02   -0.12553E-04   -0.12553E-04112576   0.287E-02
DAV:   5    -0.184826605973E+02   -0.13347E-09   -0.39563E-09 73632   0.549E-05    0.158E+01
DAV:   6    -0.164348095144E+02    0.20479E+01   -0.33449E+01 87328   0.347E+01    0.975E+00
DAV:   7    -0.164187570070E+02    0.16053E-01   -0.27570E+00 77120   0.891E+00    0.454E+00
DAV:   8    -0.164700523987E+02   -0.51295E-01   -0.11393E-01 99456   0.121E+00    0.257E+00
DAV:   9    -0.164592391111E+02    0.10813E-01   -0.31545E-02 95104   0.686E-01    0.133E+00
DAV:  10    -0.164562053078E+02    0.30338E-02   -0.30379E-02 92032   0.730E-01    0.962E-01
DAV:  11    -0.164614838052E+02   -0.52785E-02   -0.95218E-03 91744   0.389E-01    0.471E-02
DAV:  12    -0.164615337765E+02   -0.49971E-04   -0.14783E-04 78688   0.625E-02    0.360E-02
DAV:  13    -0.164615315961E+02    0.21805E-05   -0.50500E-05 60096   0.446E-02
   1 F= -.16461532E+02 E0= -.16461131E+02  d E =-.164615E+02  mag=     4.4888
