 vasp.5.4.1 24Jun15 (build May 02 2016 14:41:14) complex                        
  
 executed on           IFC91_ompi date 2025.11.12  11:42:19
 running on   32 total cores
 distrk:  each k-point on   32 cores,    1 groups
 distr:  one band on NCORES_PER_BAND=   1 cores,   32 groups


--------------------------------------------------------------------------------------------------------


 INCAR:
 POTCAR:    PAW_PBE Fe 06Sep2000                  

 ----------------------------------------------------------------------------- 
|                                                                             |
|           W    W    AA    RRRRR   N    N  II  N    N   GGGG   !!!           |
|           W    W   A  A   R    R  NN   N  II  NN   N  G    G  !!!           |
|           W    W  A    A  R    R  N N  N  II  N N  N  G       !!!           |
|           W WW W  AAAAAA  RRRRR   N  N N  II  N  N N  G  GGG   !            |
|           WW  WW  A    A  R   R   N   NN  II  N   NN  G    G                |
|           W    W  A    A  R    R  N    N  II  N    N   GGGG   !!!           |
|                                                                             |
|      For optimal performance we recommend to set                            |
|        NCORE= 4 - approx SQRT( number of cores)                             |
|      NCORE specifies how many cores store one orbital (NPAR=cpu/NCORE).     |
|      This setting can  greatly improve the performance of VASP for DFT.     |
|      The default, NPAR=number of cores might be grossly inefficient         |
|      on modern multi-core architectures or massively parallel machines.     |
|      Do your own testing !!!!                                               |
|      Unfortunately you need to use the default for GW and RPA calculations. |
|      (for HF NCORE is supported but not extensively tested yet)             |
|                                                                             |
 ----------------------------------------------------------------------------- 

 POTCAR:    PAW_PBE Fe 06Sep2000                  
   VRHFIN =Fe:  d7 s1                                                           
   LEXCH  = PE                                                                  
   EATOM  =   594.3153 eV,   43.6809 Ry                                         
                                                                                
   TITEL  = PAW_PBE Fe 06Sep2000                                                
   LULTRA =        F    use ultrasoft PP ?                                      
   IUNSCR =        1    unscreen: 0-lin 1-nonlin 2-no                           
   RPACOR =    2.000    partial core radius                                     
   POMASS =   55.847; ZVAL   =    8.000    mass and valenz                      
   RCORE  =    2.300    outmost cutoff radius                                   
   RWIGS  =    2.460; RWIGS  =    1.302    wigner-seitz radius (au A)           
   ENMAX  =  267.882; ENMIN  =  200.911 eV                                      
   RCLOC  =    1.701    cutoff for local pot                                    
   LCOR   =        T    correct aug charges                                     
   LPAW   =        T    paw PP                                                  
   EAUG   =  511.368                                                            
   DEXC   =    0.000                                                            
   RMAX   =    2.356    core radius for proj-oper                               
   RAUG   =    1.300    factor for augmentation sphere                          
   RDEP   =    2.442    radius for radial grids                                 
   RDEPT  =    1.890    core radius for aug-charge                              
                                                                                
   Atomic configuration                                                         
    9 entries                                                                   
     n  l   j            E        occ.                                          
     1  0  0.50     -6993.8440   2.0000                                         
     2  0  0.50      -814.6047   2.0000                                         
     2  1  1.50      -693.3689   6.0000                                         
     3  0  0.50       -89.4732   2.0000                                         
     3  1  1.50       -55.6373   6.0000                                         
     3  2  2.50        -3.8151   7.0000                                         
     4  0  0.50        -4.2551   1.0000                                         
     4  1  1.50        -3.4015   0.0000                                         
     4  3  2.50        -1.3606   0.0000                                         
   Description                                                                  
     l       E           TYP  RCUT    TYP  RCUT                                 
     2     -3.8151135     23  2.300                                             
     2     -5.1756961     23  2.300                                             
     0     -4.2550963     23  2.300                                             
     0      7.2035603     23  2.300                                             
     1     -2.7211652     23  2.300                                             
     1     18.4316424     23  2.300                                             
  local pseudopotential read in
  partial core-charges read in
  partial kinetic energy density read in
  atomic valenz-charges read in
  non local Contribution for L=           2  read in
    real space projection operators read in
  non local Contribution for L=           2  read in
    real space projection operators read in
  non local Contribution for L=           0  read in
    real space projection operators read in
  non local Contribution for L=           0  read in
    real space projection operators read in
  non local Contribution for L=           1  read in
    real space projection operators read in
  non local Contribution for L=           1  read in
    real space projection operators read in
    PAW grid and wavefunctions read in
 
   number of l-projection  operators is LMAX  =           6
   number of lm-projection operators is LMMAX =          18
 
  PAW_PBE Fe 06Sep2000                  :
 energy of atom  1       EATOM= -594.3153
 kinetic energy error for atom=    0.0026 (will be added to EATOM!!)
 
 
 POSCAR: BCC Fe                                  
  positions in cartesian coordinates
  No initial velocities read in
 exchange correlation table for  LEXCH =        8
   RHO(1)=    0.500       N(1)  =     2000
   RHO(2)=  100.500       N(2)  =     4000
 


--------------------------------------------------------------------------------------------------------


 ion  position               nearest neighbor table
   1  0.000  0.000  0.000-   2 2.48   2 2.48   2 2.48   2 2.48   2 2.48   2 2.48   2 2.48   2 2.48

   2  0.500  0.500  0.500-   1 2.48   1 2.48   1 2.48   1 2.48   1 2.48   1 2.48   1 2.48   1 2.48

 

IMPORTANT INFORMATION: All symmetrisations will be switched off!
NOSYMM: (Re-)initialisation of all symmetry stuff for point group C_1.

 
 
 KPOINTS: Automatic mesh                          

Automatic generation of k-mesh.
Space group operators:
 irot       det(A)        alpha          n_x          n_y          n_z        tau_x        tau_y        tau_z
    1     1.000000     0.000001     1.000000     0.000000     0.000000     0.000000     0.000000     0.000000
 
 Subroutine IBZKPT returns following result:
 ===========================================
 
 Found    500 irreducible k-points:
 
 Following reciprocal coordinates:
            Coordinates               Weight
  0.050000  0.050000  0.050000      2.000000
  0.150000  0.050000  0.050000      2.000000
  0.250000  0.050000  0.050000      2.000000
  0.350000  0.050000  0.050000      2.000000
  0.450000  0.050000  0.050000      2.000000
 -0.450000  0.050000  0.050000      2.000000
 -0.350000  0.050000  0.050000      2.000000
 -0.250000  0.050000  0.050000      2.000000
 -0.150000  0.050000  0.050000      2.000000
 -0.050000  0.050000  0.050000      2.000000
  0.050000  0.150000  0.050000      2.000000
  0.150000  0.150000  0.050000      2.000000
  0.250000  0.150000  0.050000      2.000000
  0.350000  0.150000  0.050000      2.000000
  0.450000  0.150000  0.050000      2.000000
 -0.450000  0.150000  0.050000      2.000000
 -0.350000  0.150000  0.050000      2.000000
 -0.250000  0.150000  0.050000      2.000000
 -0.150000  0.150000  0.050000      2.000000
 -0.050000  0.150000  0.050000      2.000000
  0.050000  0.250000  0.050000      2.000000
  0.150000  0.250000  0.050000      2.000000
  0.250000  0.250000  0.050000      2.000000
  0.350000  0.250000  0.050000      2.000000
  0.450000  0.250000  0.050000      2.000000
 -0.450000  0.250000  0.050000      2.000000
 -0.350000  0.250000  0.050000      2.000000
 -0.250000  0.250000  0.050000      2.000000
 -0.150000  0.250000  0.050000      2.000000
 -0.050000  0.250000  0.050000      2.000000
  0.050000  0.350000  0.050000      2.000000
  0.150000  0.350000  0.050000      2.000000
  0.250000  0.350000  0.050000      2.000000
  0.350000  0.350000  0.050000      2.000000
  0.450000  0.350000  0.050000      2.000000
 -0.450000  0.350000  0.050000      2.000000
 -0.350000  0.350000  0.050000      2.000000
 -0.250000  0.350000  0.050000      2.000000
 -0.150000  0.350000  0.050000      2.000000
 -0.050000  0.350000  0.050000      2.000000
  0.050000  0.450000  0.050000      2.000000
  0.150000  0.450000  0.050000      2.000000
  0.250000  0.450000  0.050000      2.000000
  0.350000  0.450000  0.050000      2.000000
  0.450000  0.450000  0.050000      2.000000
 -0.450000  0.450000  0.050000      2.000000
 -0.350000  0.450000  0.050000      2.000000
 -0.250000  0.450000  0.050000      2.000000
 -0.150000  0.450000  0.050000      2.000000
 -0.050000  0.450000  0.050000      2.000000
  0.050000 -0.450000  0.050000      2.000000
  0.150000 -0.450000  0.050000      2.000000
  0.250000 -0.450000  0.050000      2.000000
  0.350000 -0.450000  0.050000      2.000000
  0.450000 -0.450000  0.050000      2.000000
 -0.450000 -0.450000  0.050000      2.000000
 -0.350000 -0.450000  0.050000      2.000000
 -0.250000 -0.450000  0.050000      2.000000
 -0.150000 -0.450000  0.050000      2.000000
 -0.050000 -0.450000  0.050000      2.000000
  0.050000 -0.350000  0.050000      2.000000
  0.150000 -0.350000  0.050000      2.000000
  0.250000 -0.350000  0.050000      2.000000
  0.350000 -0.350000  0.050000      2.000000
  0.450000 -0.350000  0.050000      2.000000
 -0.450000 -0.350000  0.050000      2.000000
 -0.350000 -0.350000  0.050000      2.000000
 -0.250000 -0.350000  0.050000      2.000000
 -0.150000 -0.350000  0.050000      2.000000
 -0.050000 -0.350000  0.050000      2.000000
  0.050000 -0.250000  0.050000      2.000000
  0.150000 -0.250000  0.050000      2.000000
  0.250000 -0.250000  0.050000      2.000000
  0.350000 -0.250000  0.050000      2.000000
  0.450000 -0.250000  0.050000      2.000000
 -0.450000 -0.250000  0.050000      2.000000
 -0.350000 -0.250000  0.050000      2.000000
 -0.250000 -0.250000  0.050000      2.000000
 -0.150000 -0.250000  0.050000      2.000000
 -0.050000 -0.250000  0.050000      2.000000
  0.050000 -0.150000  0.050000      2.000000
  0.150000 -0.150000  0.050000      2.000000
  0.250000 -0.150000  0.050000      2.000000
  0.350000 -0.150000  0.050000      2.000000
  0.450000 -0.150000  0.050000      2.000000
 -0.450000 -0.150000  0.050000      2.000000
 -0.350000 -0.150000  0.050000      2.000000
 -0.250000 -0.150000  0.050000      2.000000
 -0.150000 -0.150000  0.050000      2.000000
 -0.050000 -0.150000  0.050000      2.000000
  0.050000 -0.050000  0.050000      2.000000
  0.150000 -0.050000  0.050000      2.000000
  0.250000 -0.050000  0.050000      2.000000
  0.350000 -0.050000  0.050000      2.000000
  0.450000 -0.050000  0.050000      2.000000
 -0.450000 -0.050000  0.050000      2.000000
 -0.350000 -0.050000  0.050000      2.000000
 -0.250000 -0.050000  0.050000      2.000000
 -0.150000 -0.050000  0.050000      2.000000
 -0.050000 -0.050000  0.050000      2.000000
  0.050000  0.050000  0.150000      2.000000
  0.150000  0.050000  0.150000      2.000000
  0.250000  0.050000  0.150000      2.000000
  0.350000  0.050000  0.150000      2.000000
  0.450000  0.050000  0.150000      2.000000
 -0.450000  0.050000  0.150000      2.000000
 -0.350000  0.050000  0.150000      2.000000
 -0.250000  0.050000  0.150000      2.000000
 -0.150000  0.050000  0.150000      2.000000
 -0.050000  0.050000  0.150000      2.000000
  0.050000  0.150000  0.150000      2.000000
  0.150000  0.150000  0.150000      2.000000
  0.250000  0.150000  0.150000      2.000000
  0.350000  0.150000  0.150000      2.000000
  0.450000  0.150000  0.150000      2.000000
 -0.450000  0.150000  0.150000      2.000000
 -0.350000  0.150000  0.150000      2.000000
 -0.250000  0.150000  0.150000      2.000000
 -0.150000  0.150000  0.150000      2.000000
 -0.050000  0.150000  0.150000      2.000000
  0.050000  0.250000  0.150000      2.000000
  0.150000  0.250000  0.150000      2.000000
  0.250000  0.250000  0.150000      2.000000
  0.350000  0.250000  0.150000      2.000000
  0.450000  0.250000  0.150000      2.000000
 -0.450000  0.250000  0.150000      2.000000
 -0.350000  0.250000  0.150000      2.000000
 -0.250000  0.250000  0.150000      2.000000
 -0.150000  0.250000  0.150000      2.000000
 -0.050000  0.250000  0.150000      2.000000
  0.050000  0.350000  0.150000      2.000000
  0.150000  0.350000  0.150000      2.000000
  0.250000  0.350000  0.150000      2.000000
  0.350000  0.350000  0.150000      2.000000
  0.450000  0.350000  0.150000      2.000000
 -0.450000  0.350000  0.150000      2.000000
 -0.350000  0.350000  0.150000      2.000000
 -0.250000  0.350000  0.150000      2.000000
 -0.150000  0.350000  0.150000      2.000000
 -0.050000  0.350000  0.150000      2.000000
  0.050000  0.450000  0.150000      2.000000
  0.150000  0.450000  0.150000      2.000000
  0.250000  0.450000  0.150000      2.000000
  0.350000  0.450000  0.150000      2.000000
  0.450000  0.450000  0.150000      2.000000
 -0.450000  0.450000  0.150000      2.000000
 -0.350000  0.450000  0.150000      2.000000
 -0.250000  0.450000  0.150000      2.000000
 -0.150000  0.450000  0.150000      2.000000
 -0.050000  0.450000  0.150000      2.000000
  0.050000 -0.450000  0.150000      2.000000
  0.150000 -0.450000  0.150000      2.000000
  0.250000 -0.450000  0.150000      2.000000
  0.350000 -0.450000  0.150000      2.000000
  0.450000 -0.450000  0.150000      2.000000
 -0.450000 -0.450000  0.150000      2.000000
 -0.350000 -0.450000  0.150000      2.000000
 -0.250000 -0.450000  0.150000      2.000000
 -0.150000 -0.450000  0.150000      2.000000
 -0.050000 -0.450000  0.150000      2.000000
  0.050000 -0.350000  0.150000      2.000000
  0.150000 -0.350000  0.150000      2.000000
  0.250000 -0.350000  0.150000      2.000000
  0.350000 -0.350000  0.150000      2.000000
  0.450000 -0.350000  0.150000      2.000000
 -0.450000 -0.350000  0.150000      2.000000
 -0.350000 -0.350000  0.150000      2.000000
 -0.250000 -0.350000  0.150000      2.000000
 -0.150000 -0.350000  0.150000      2.000000
 -0.050000 -0.350000  0.150000      2.000000
  0.050000 -0.250000  0.150000      2.000000
  0.150000 -0.250000  0.150000      2.000000
  0.250000 -0.250000  0.150000      2.000000
  0.350000 -0.250000  0.150000      2.000000
  0.450000 -0.250000  0.150000      2.000000
 -0.450000 -0.250000  0.150000      2.000000
 -0.350000 -0.250000  0.150000      2.000000
 -0.250000 -0.250000  0.150000      2.000000
 -0.150000 -0.250000  0.150000      2.000000
 -0.050000 -0.250000  0.150000      2.000000
  0.050000 -0.150000  0.150000      2.000000
  0.150000 -0.150000  0.150000      2.000000
  0.250000 -0.150000  0.150000      2.000000
  0.350000 -0.150000  0.150000      2.000000
  0.450000 -0.150000  0.150000      2.000000
 -0.450000 -0.150000  0.150000      2.000000
 -0.350000 -0.150000  0.150000      2.000000
 -0.250000 -0.150000  0.150000      2.000000
 -0.150000 -0.150000  0.150000      2.000000
 -0.050000 -0.150000  0.150000      2.000000
  0.050000 -0.050000  0.150000      2.000000
  0.150000 -0.050000  0.150000      2.000000
  0.250000 -0.050000  0.150000      2.000000
  0.350000 -0.050000  0.150000      2.000000
  0.450000 -0.050000  0.150000      2.000000
 -0.450000 -0.050000  0.150000      2.000000
 -0.350000 -0.050000  0.150000      2.000000
 -0.250000 -0.050000  0.150000      2.000000
 -0.150000 -0.050000  0.150000      2.000000
 -0.050000 -0.050000  0.150000      2.000000
  0.050000  0.050000  0.250000      2.000000
  0.150000  0.050000  0.250000      2.000000
  0.250000  0.050000  0.250000      2.000000
  0.350000  0.050000  0.250000      2.000000
  0.450000  0.050000  0.250000      2.000000
 -0.450000  0.050000  0.250000      2.000000
 -0.350000  0.050000  0.250000      2.000000
 -0.250000  0.050000  0.250000      2.000000
 -0.150000  0.050000  0.250000      2.000000
 -0.050000  0.050000  0.250000      2.000000
  0.050000  0.150000  0.250000      2.000000
  0.150000  0.150000  0.250000      2.000000
  0.250000  0.150000  0.250000      2.000000
  0.350000  0.150000  0.250000      2.000000
  0.450000  0.150000  0.250000      2.000000
 -0.450000  0.150000  0.250000      2.000000
 -0.350000  0.150000  0.250000      2.000000
 -0.250000  0.150000  0.250000      2.000000
 -0.150000  0.150000  0.250000      2.000000
 -0.050000  0.150000  0.250000      2.000000
  0.050000  0.250000  0.250000      2.000000
  0.150000  0.250000  0.250000      2.000000
  0.250000  0.250000  0.250000      2.000000
  0.350000  0.250000  0.250000      2.000000
  0.450000  0.250000  0.250000      2.000000
 -0.450000  0.250000  0.250000      2.000000
 -0.350000  0.250000  0.250000      2.000000
 -0.250000  0.250000  0.250000      2.000000
 -0.150000  0.250000  0.250000      2.000000
 -0.050000  0.250000  0.250000      2.000000
  0.050000  0.350000  0.250000      2.000000
  0.150000  0.350000  0.250000      2.000000
  0.250000  0.350000  0.250000      2.000000
  0.350000  0.350000  0.250000      2.000000
  0.450000  0.350000  0.250000      2.000000
 -0.450000  0.350000  0.250000      2.000000
 -0.350000  0.350000  0.250000      2.000000
 -0.250000  0.350000  0.250000      2.000000
 -0.150000  0.350000  0.250000      2.000000
 -0.050000  0.350000  0.250000      2.000000
  0.050000  0.450000  0.250000      2.000000
  0.150000  0.450000  0.250000      2.000000
  0.250000  0.450000  0.250000      2.000000
  0.350000  0.450000  0.250000      2.000000
  0.450000  0.450000  0.250000      2.000000
 -0.450000  0.450000  0.250000      2.000000
 -0.350000  0.450000  0.250000      2.000000
 -0.250000  0.450000  0.250000      2.000000
 -0.150000  0.450000  0.250000      2.000000
 -0.050000  0.450000  0.250000      2.000000
  0.050000 -0.450000  0.250000      2.000000
  0.150000 -0.450000  0.250000      2.000000
  0.250000 -0.450000  0.250000      2.000000
  0.350000 -0.450000  0.250000      2.000000
  0.450000 -0.450000  0.250000      2.000000
 -0.450000 -0.450000  0.250000      2.000000
 -0.350000 -0.450000  0.250000      2.000000
 -0.250000 -0.450000  0.250000      2.000000
 -0.150000 -0.450000  0.250000      2.000000
 -0.050000 -0.450000  0.250000      2.000000
  0.050000 -0.350000  0.250000      2.000000
  0.150000 -0.350000  0.250000      2.000000
  0.250000 -0.350000  0.250000      2.000000
  0.350000 -0.350000  0.250000      2.000000
  0.450000 -0.350000  0.250000      2.000000
 -0.450000 -0.350000  0.250000      2.000000
 -0.350000 -0.350000  0.250000      2.000000
 -0.250000 -0.350000  0.250000      2.000000
 -0.150000 -0.350000  0.250000      2.000000
 -0.050000 -0.350000  0.250000      2.000000
  0.050000 -0.250000  0.250000      2.000000
  0.150000 -0.250000  0.250000      2.000000
  0.250000 -0.250000  0.250000      2.000000
  0.350000 -0.250000  0.250000      2.000000
  0.450000 -0.250000  0.250000      2.000000
 -0.450000 -0.250000  0.250000      2.000000
 -0.350000 -0.250000  0.250000      2.000000
 -0.250000 -0.250000  0.250000      2.000000
 -0.150000 -0.250000  0.250000      2.000000
 -0.050000 -0.250000  0.250000      2.000000
  0.050000 -0.150000  0.250000      2.000000
  0.150000 -0.150000  0.250000      2.000000
  0.250000 -0.150000  0.250000      2.000000
  0.350000 -0.150000  0.250000      2.000000
  0.450000 -0.150000  0.250000      2.000000
 -0.450000 -0.150000  0.250000      2.000000
 -0.350000 -0.150000  0.250000      2.000000
 -0.250000 -0.150000  0.250000      2.000000
 -0.150000 -0.150000  0.250000      2.000000
 -0.050000 -0.150000  0.250000      2.000000
  0.050000 -0.050000  0.250000      2.000000
  0.150000 -0.050000  0.250000      2.000000
  0.250000 -0.050000  0.250000      2.000000
  0.350000 -0.050000  0.250000      2.000000
  0.450000 -0.050000  0.250000      2.000000
 -0.450000 -0.050000  0.250000      2.000000
 -0.350000 -0.050000  0.250000      2.000000
 -0.250000 -0.050000  0.250000      2.000000
 -0.150000 -0.050000  0.250000      2.000000
 -0.050000 -0.050000  0.250000      2.000000
  0.050000  0.050000  0.350000      2.000000
  0.150000  0.050000  0.350000      2.000000
  0.250000  0.050000  0.350000      2.000000
  0.350000  0.050000  0.350000      2.000000
  0.450000  0.050000  0.350000      2.000000
 -0.450000  0.050000  0.350000      2.000000
 -0.350000  0.050000  0.350000      2.000000
 -0.250000  0.050000  0.350000      2.000000
 -0.150000  0.050000  0.350000      2.000000
 -0.050000  0.050000  0.350000      2.000000
  0.050000  0.150000  0.350000      2.000000
  0.150000  0.150000  0.350000      2.000000
  0.250000  0.150000  0.350000      2.000000
  0.350000  0.150000  0.350000      2.000000
  0.450000  0.150000  0.350000      2.000000
 -0.450000  0.150000  0.350000      2.000000
 -0.350000  0.150000  0.350000      2.000000
 -0.250000  0.150000  0.350000      2.000000
 -0.150000  0.150000  0.350000      2.000000
 -0.050000  0.150000  0.350000      2.000000
  0.050000  0.250000  0.350000      2.000000
  0.150000  0.250000  0.350000      2.000000
  0.250000  0.250000  0.350000      2.000000
  0.350000  0.250000  0.350000      2.000000
  0.450000  0.250000  0.350000      2.000000
 -0.450000  0.250000  0.350000      2.000000
 -0.350000  0.250000  0.350000      2.000000
 -0.250000  0.250000  0.350000      2.000000
 -0.150000  0.250000  0.350000      2.000000
 -0.050000  0.250000  0.350000      2.000000
  0.050000  0.350000  0.350000      2.000000
  0.150000  0.350000  0.350000      2.000000
  0.250000  0.350000  0.350000      2.000000
  0.350000  0.350000  0.350000      2.000000
  0.450000  0.350000  0.350000      2.000000
 -0.450000  0.350000  0.350000      2.000000
 -0.350000  0.350000  0.350000      2.000000
 -0.250000  0.350000  0.350000      2.000000
 -0.150000  0.350000  0.350000      2.000000
 -0.050000  0.350000  0.350000      2.000000
  0.050000  0.450000  0.350000      2.000000
  0.150000  0.450000  0.350000      2.000000
  0.250000  0.450000  0.350000      2.000000
  0.350000  0.450000  0.350000      2.000000
  0.450000  0.450000  0.350000      2.000000
 -0.450000  0.450000  0.350000      2.000000
 -0.350000  0.450000  0.350000      2.000000
 -0.250000  0.450000  0.350000      2.000000
 -0.150000  0.450000  0.350000      2.000000
 -0.050000  0.450000  0.350000      2.000000
  0.050000 -0.450000  0.350000      2.000000
  0.150000 -0.450000  0.350000      2.000000
  0.250000 -0.450000  0.350000      2.000000
  0.350000 -0.450000  0.350000      2.000000
  0.450000 -0.450000  0.350000      2.000000
 -0.450000 -0.450000  0.350000      2.000000
 -0.350000 -0.450000  0.350000      2.000000
 -0.250000 -0.450000  0.350000      2.000000
 -0.150000 -0.450000  0.350000      2.000000
 -0.050000 -0.450000  0.350000      2.000000
  0.050000 -0.350000  0.350000      2.000000
  0.150000 -0.350000  0.350000      2.000000
  0.250000 -0.350000  0.350000      2.000000
  0.350000 -0.350000  0.350000      2.000000
  0.450000 -0.350000  0.350000      2.000000
 -0.450000 -0.350000  0.350000      2.000000
 -0.350000 -0.350000  0.350000      2.000000
 -0.250000 -0.350000  0.350000      2.000000
 -0.150000 -0.350000  0.350000      2.000000
 -0.050000 -0.350000  0.350000      2.000000
  0.050000 -0.250000  0.350000      2.000000
  0.150000 -0.250000  0.350000      2.000000
  0.250000 -0.250000  0.350000      2.000000
  0.350000 -0.250000  0.350000      2.000000
  0.450000 -0.250000  0.350000      2.000000
 -0.450000 -0.250000  0.350000      2.000000
 -0.350000 -0.250000  0.350000      2.000000
 -0.250000 -0.250000  0.350000      2.000000
 -0.150000 -0.250000  0.350000      2.000000
 -0.050000 -0.250000  0.350000      2.000000
  0.050000 -0.150000  0.350000      2.000000
  0.150000 -0.150000  0.350000      2.000000
  0.250000 -0.150000  0.350000      2.000000
  0.350000 -0.150000  0.350000      2.000000
  0.450000 -0.150000  0.350000      2.000000
 -0.450000 -0.150000  0.350000      2.000000
 -0.350000 -0.150000  0.350000      2.000000
 -0.250000 -0.150000  0.350000      2.000000
 -0.150000 -0.150000  0.350000      2.000000
 -0.050000 -0.150000  0.350000      2.000000
  0.050000 -0.050000  0.350000      2.000000
  0.150000 -0.050000  0.350000      2.000000
  0.250000 -0.050000  0.350000      2.000000
  0.350000 -0.050000  0.350000      2.000000
  0.450000 -0.050000  0.350000      2.000000
 -0.450000 -0.050000  0.350000      2.000000
 -0.350000 -0.050000  0.350000      2.000000
 -0.250000 -0.050000  0.350000      2.000000
 -0.150000 -0.050000  0.350000      2.000000
 -0.050000 -0.050000  0.350000      2.000000
  0.050000  0.050000  0.450000      2.000000
  0.150000  0.050000  0.450000      2.000000
  0.250000  0.050000  0.450000      2.000000
  0.350000  0.050000  0.450000      2.000000
  0.450000  0.050000  0.450000      2.000000
 -0.450000  0.050000  0.450000      2.000000
 -0.350000  0.050000  0.450000      2.000000
 -0.250000  0.050000  0.450000      2.000000
 -0.150000  0.050000  0.450000      2.000000
 -0.050000  0.050000  0.450000      2.000000
  0.050000  0.150000  0.450000      2.000000
  0.150000  0.150000  0.450000      2.000000
  0.250000  0.150000  0.450000      2.000000
  0.350000  0.150000  0.450000      2.000000
  0.450000  0.150000  0.450000      2.000000
 -0.450000  0.150000  0.450000      2.000000
 -0.350000  0.150000  0.450000      2.000000
 -0.250000  0.150000  0.450000      2.000000
 -0.150000  0.150000  0.450000      2.000000
 -0.050000  0.150000  0.450000      2.000000
  0.050000  0.250000  0.450000      2.000000
  0.150000  0.250000  0.450000      2.000000
  0.250000  0.250000  0.450000      2.000000
  0.350000  0.250000  0.450000      2.000000
  0.450000  0.250000  0.450000      2.000000
 -0.450000  0.250000  0.450000      2.000000
 -0.350000  0.250000  0.450000      2.000000
 -0.250000  0.250000  0.450000      2.000000
 -0.150000  0.250000  0.450000      2.000000
 -0.050000  0.250000  0.450000      2.000000
  0.050000  0.350000  0.450000      2.000000
  0.150000  0.350000  0.450000      2.000000
  0.250000  0.350000  0.450000      2.000000
  0.350000  0.350000  0.450000      2.000000
  0.450000  0.350000  0.450000      2.000000
 -0.450000  0.350000  0.450000      2.000000
 -0.350000  0.350000  0.450000      2.000000
 -0.250000  0.350000  0.450000      2.000000
 -0.150000  0.350000  0.450000      2.000000
 -0.050000  0.350000  0.450000      2.000000
  0.050000  0.450000  0.450000      2.000000
  0.150000  0.450000  0.450000      2.000000
  0.250000  0.450000  0.450000      2.000000
  0.350000  0.450000  0.450000      2.000000
  0.450000  0.450000  0.450000      2.000000
 -0.450000  0.450000  0.450000      2.000000
 -0.350000  0.450000  0.450000      2.000000
 -0.250000  0.450000  0.450000      2.000000
 -0.150000  0.450000  0.450000      2.000000
 -0.050000  0.450000  0.450000      2.000000
  0.050000 -0.450000  0.450000      2.000000
  0.150000 -0.450000  0.450000      2.000000
  0.250000 -0.450000  0.450000      2.000000
  0.350000 -0.450000  0.450000      2.000000
  0.450000 -0.450000  0.450000      2.000000
 -0.450000 -0.450000  0.450000      2.000000
 -0.350000 -0.450000  0.450000      2.000000
 -0.250000 -0.450000  0.450000      2.000000
 -0.150000 -0.450000  0.450000      2.000000
 -0.050000 -0.450000  0.450000      2.000000
  0.050000 -0.350000  0.450000      2.000000
  0.150000 -0.350000  0.450000      2.000000
  0.250000 -0.350000  0.450000      2.000000
  0.350000 -0.350000  0.450000      2.000000
  0.450000 -0.350000  0.450000      2.000000
 -0.450000 -0.350000  0.450000      2.000000
 -0.350000 -0.350000  0.450000      2.000000
 -0.250000 -0.350000  0.450000      2.000000
 -0.150000 -0.350000  0.450000      2.000000
 -0.050000 -0.350000  0.450000      2.000000
  0.050000 -0.250000  0.450000      2.000000
  0.150000 -0.250000  0.450000      2.000000
  0.250000 -0.250000  0.450000      2.000000
  0.350000 -0.250000  0.450000      2.000000
  0.450000 -0.250000  0.450000      2.000000
 -0.450000 -0.250000  0.450000      2.000000
 -0.350000 -0.250000  0.450000      2.000000
 -0.250000 -0.250000  0.450000      2.000000
 -0.150000 -0.250000  0.450000      2.000000
 -0.050000 -0.250000  0.450000      2.000000
  0.050000 -0.150000  0.450000      2.000000
  0.150000 -0.150000  0.450000      2.000000
  0.250000 -0.150000  0.450000      2.000000
  0.350000 -0.150000  0.450000      2.000000
  0.450000 -0.150000  0.450000      2.000000
 -0.450000 -0.150000  0.450000      2.000000
 -0.350000 -0.150000  0.450000      2.000000
 -0.250000 -0.150000  0.450000      2.000000
 -0.150000 -0.150000  0.450000      2.000000
 -0.050000 -0.150000  0.450000      2.000000
  0.050000 -0.050000  0.450000      2.000000
  0.150000 -0.050000  0.450000      2.000000
  0.250000 -0.050000  0.450000      2.000000
  0.350000 -0.050000  0.450000      2.000000
  0.450000 -0.050000  0.450000      2.000000
 -0.450000 -0.050000  0.450000      2.000000
 -0.350000 -0.050000  0.450000      2.000000
 -0.250000 -0.050000  0.450000      2.000000
 -0.150000 -0.050000  0.450000      2.000000
 -0.050000 -0.050000  0.450000      2.000000
 
 Following cartesian coordinates:
            Coordinates               Weight
  0.050000  0.050000  0.050000      2.000000
  0.150000  0.050000  0.050000      2.000000
  0.250000  0.050000  0.050000      2.000000
  0.350000  0.050000  0.050000      2.000000
  0.450000  0.050000  0.050000      2.000000
 -0.450000  0.050000  0.050000      2.000000
 -0.350000  0.050000  0.050000      2.000000
 -0.250000  0.050000  0.050000      2.000000
 -0.150000  0.050000  0.050000      2.000000
 -0.050000  0.050000  0.050000      2.000000
  0.050000  0.150000  0.050000      2.000000
  0.150000  0.150000  0.050000      2.000000
  0.250000  0.150000  0.050000      2.000000
  0.350000  0.150000  0.050000      2.000000
  0.450000  0.150000  0.050000      2.000000
 -0.450000  0.150000  0.050000      2.000000
 -0.350000  0.150000  0.050000      2.000000
 -0.250000  0.150000  0.050000      2.000000
 -0.150000  0.150000  0.050000      2.000000
 -0.050000  0.150000  0.050000      2.000000
  0.050000  0.250000  0.050000      2.000000
  0.150000  0.250000  0.050000      2.000000
  0.250000  0.250000  0.050000      2.000000
  0.350000  0.250000  0.050000      2.000000
  0.450000  0.250000  0.050000      2.000000
 -0.450000  0.250000  0.050000      2.000000
 -0.350000  0.250000  0.050000      2.000000
 -0.250000  0.250000  0.050000      2.000000
 -0.150000  0.250000  0.050000      2.000000
 -0.050000  0.250000  0.050000      2.000000
  0.050000  0.350000  0.050000      2.000000
  0.150000  0.350000  0.050000      2.000000
  0.250000  0.350000  0.050000      2.000000
  0.350000  0.350000  0.050000      2.000000
  0.450000  0.350000  0.050000      2.000000
 -0.450000  0.350000  0.050000      2.000000
 -0.350000  0.350000  0.050000      2.000000
 -0.250000  0.350000  0.050000      2.000000
 -0.150000  0.350000  0.050000      2.000000
 -0.050000  0.350000  0.050000      2.000000
  0.050000  0.450000  0.050000      2.000000
  0.150000  0.450000  0.050000      2.000000
  0.250000  0.450000  0.050000      2.000000
  0.350000  0.450000  0.050000      2.000000
  0.450000  0.450000  0.050000      2.000000
 -0.450000  0.450000  0.050000      2.000000
 -0.350000  0.450000  0.050000      2.000000
 -0.250000  0.450000  0.050000      2.000000
 -0.150000  0.450000  0.050000      2.000000
 -0.050000  0.450000  0.050000      2.000000
  0.050000 -0.450000  0.050000      2.000000
  0.150000 -0.450000  0.050000      2.000000
  0.250000 -0.450000  0.050000      2.000000
  0.350000 -0.450000  0.050000      2.000000
  0.450000 -0.450000  0.050000      2.000000
 -0.450000 -0.450000  0.050000      2.000000
 -0.350000 -0.450000  0.050000      2.000000
 -0.250000 -0.450000  0.050000      2.000000
 -0.150000 -0.450000  0.050000      2.000000
 -0.050000 -0.450000  0.050000      2.000000
  0.050000 -0.350000  0.050000      2.000000
  0.150000 -0.350000  0.050000      2.000000
  0.250000 -0.350000  0.050000      2.000000
  0.350000 -0.350000  0.050000      2.000000
  0.450000 -0.350000  0.050000      2.000000
 -0.450000 -0.350000  0.050000      2.000000
 -0.350000 -0.350000  0.050000      2.000000
 -0.250000 -0.350000  0.050000      2.000000
 -0.150000 -0.350000  0.050000      2.000000
 -0.050000 -0.350000  0.050000      2.000000
  0.050000 -0.250000  0.050000      2.000000
  0.150000 -0.250000  0.050000      2.000000
  0.250000 -0.250000  0.050000      2.000000
  0.350000 -0.250000  0.050000      2.000000
  0.450000 -0.250000  0.050000      2.000000
 -0.450000 -0.250000  0.050000      2.000000
 -0.350000 -0.250000  0.050000      2.000000
 -0.250000 -0.250000  0.050000      2.000000
 -0.150000 -0.250000  0.050000      2.000000
 -0.050000 -0.250000  0.050000      2.000000
  0.050000 -0.150000  0.050000      2.000000
  0.150000 -0.150000  0.050000      2.000000
  0.250000 -0.150000  0.050000      2.000000
  0.350000 -0.150000  0.050000      2.000000
  0.450000 -0.150000  0.050000      2.000000
 -0.450000 -0.150000  0.050000      2.000000
 -0.350000 -0.150000  0.050000      2.000000
 -0.250000 -0.150000  0.050000      2.000000
 -0.150000 -0.150000  0.050000      2.000000
 -0.050000 -0.150000  0.050000      2.000000
  0.050000 -0.050000  0.050000      2.000000
  0.150000 -0.050000  0.050000      2.000000
  0.250000 -0.050000  0.050000      2.000000
  0.350000 -0.050000  0.050000      2.000000
  0.450000 -0.050000  0.050000      2.000000
 -0.450000 -0.050000  0.050000      2.000000
 -0.350000 -0.050000  0.050000      2.000000
 -0.250000 -0.050000  0.050000      2.000000
 -0.150000 -0.050000  0.050000      2.000000
 -0.050000 -0.050000  0.050000      2.000000
  0.050000  0.050000  0.150000      2.000000
  0.150000  0.050000  0.150000      2.000000
  0.250000  0.050000  0.150000      2.000000
  0.350000  0.050000  0.150000      2.000000
  0.450000  0.050000  0.150000      2.000000
 -0.450000  0.050000  0.150000      2.000000
 -0.350000  0.050000  0.150000      2.000000
 -0.250000  0.050000  0.150000      2.000000
 -0.150000  0.050000  0.150000      2.000000
 -0.050000  0.050000  0.150000      2.000000
  0.050000  0.150000  0.150000      2.000000
  0.150000  0.150000  0.150000      2.000000
  0.250000  0.150000  0.150000      2.000000
  0.350000  0.150000  0.150000      2.000000
  0.450000  0.150000  0.150000      2.000000
 -0.450000  0.150000  0.150000      2.000000
 -0.350000  0.150000  0.150000      2.000000
 -0.250000  0.150000  0.150000      2.000000
 -0.150000  0.150000  0.150000      2.000000
 -0.050000  0.150000  0.150000      2.000000
  0.050000  0.250000  0.150000      2.000000
  0.150000  0.250000  0.150000      2.000000
  0.250000  0.250000  0.150000      2.000000
  0.350000  0.250000  0.150000      2.000000
  0.450000  0.250000  0.150000      2.000000
 -0.450000  0.250000  0.150000      2.000000
 -0.350000  0.250000  0.150000      2.000000
 -0.250000  0.250000  0.150000      2.000000
 -0.150000  0.250000  0.150000      2.000000
 -0.050000  0.250000  0.150000      2.000000
  0.050000  0.350000  0.150000      2.000000
  0.150000  0.350000  0.150000      2.000000
  0.250000  0.350000  0.150000      2.000000
  0.350000  0.350000  0.150000      2.000000
  0.450000  0.350000  0.150000      2.000000
 -0.450000  0.350000  0.150000      2.000000
 -0.350000  0.350000  0.150000      2.000000
 -0.250000  0.350000  0.150000      2.000000
 -0.150000  0.350000  0.150000      2.000000
 -0.050000  0.350000  0.150000      2.000000
  0.050000  0.450000  0.150000      2.000000
  0.150000  0.450000  0.150000      2.000000
  0.250000  0.450000  0.150000      2.000000
  0.350000  0.450000  0.150000      2.000000
  0.450000  0.450000  0.150000      2.000000
 -0.450000  0.450000  0.150000      2.000000
 -0.350000  0.450000  0.150000      2.000000
 -0.250000  0.450000  0.150000      2.000000
 -0.150000  0.450000  0.150000      2.000000
 -0.050000  0.450000  0.150000      2.000000
  0.050000 -0.450000  0.150000      2.000000
  0.150000 -0.450000  0.150000      2.000000
  0.250000 -0.450000  0.150000      2.000000
  0.350000 -0.450000  0.150000      2.000000
  0.450000 -0.450000  0.150000      2.000000
 -0.450000 -0.450000  0.150000      2.000000
 -0.350000 -0.450000  0.150000      2.000000
 -0.250000 -0.450000  0.150000      2.000000
 -0.150000 -0.450000  0.150000      2.000000
 -0.050000 -0.450000  0.150000      2.000000
  0.050000 -0.350000  0.150000      2.000000
  0.150000 -0.350000  0.150000      2.000000
  0.250000 -0.350000  0.150000      2.000000
  0.350000 -0.350000  0.150000      2.000000
  0.450000 -0.350000  0.150000      2.000000
 -0.450000 -0.350000  0.150000      2.000000
 -0.350000 -0.350000  0.150000      2.000000
 -0.250000 -0.350000  0.150000      2.000000
 -0.150000 -0.350000  0.150000      2.000000
 -0.050000 -0.350000  0.150000      2.000000
  0.050000 -0.250000  0.150000      2.000000
  0.150000 -0.250000  0.150000      2.000000
  0.250000 -0.250000  0.150000      2.000000
  0.350000 -0.250000  0.150000      2.000000
  0.450000 -0.250000  0.150000      2.000000
 -0.450000 -0.250000  0.150000      2.000000
 -0.350000 -0.250000  0.150000      2.000000
 -0.250000 -0.250000  0.150000      2.000000
 -0.150000 -0.250000  0.150000      2.000000
 -0.050000 -0.250000  0.150000      2.000000
  0.050000 -0.150000  0.150000      2.000000
  0.150000 -0.150000  0.150000      2.000000
  0.250000 -0.150000  0.150000      2.000000
  0.350000 -0.150000  0.150000      2.000000
  0.450000 -0.150000  0.150000      2.000000
 -0.450000 -0.150000  0.150000      2.000000
 -0.350000 -0.150000  0.150000      2.000000
 -0.250000 -0.150000  0.150000      2.000000
 -0.150000 -0.150000  0.150000      2.000000
 -0.050000 -0.150000  0.150000      2.000000
  0.050000 -0.050000  0.150000      2.000000
  0.150000 -0.050000  0.150000      2.000000
  0.250000 -0.050000  0.150000      2.000000
  0.350000 -0.050000  0.150000      2.000000
  0.450000 -0.050000  0.150000      2.000000
 -0.450000 -0.050000  0.150000      2.000000
 -0.350000 -0.050000  0.150000      2.000000
 -0.250000 -0.050000  0.150000      2.000000
 -0.150000 -0.050000  0.150000      2.000000
 -0.050000 -0.050000  0.150000      2.000000
  0.050000  0.050000  0.250000      2.000000
  0.150000  0.050000  0.250000      2.000000
  0.250000  0.050000  0.250000      2.000000
  0.350000  0.050000  0.250000      2.000000
  0.450000  0.050000  0.250000      2.000000
 -0.450000  0.050000  0.250000      2.000000
 -0.350000  0.050000  0.250000      2.000000
 -0.250000  0.050000  0.250000      2.000000
 -0.150000  0.050000  0.250000      2.000000
 -0.050000  0.050000  0.250000      2.000000
  0.050000  0.150000  0.250000      2.000000
  0.150000  0.150000  0.250000      2.000000
  0.250000  0.150000  0.250000      2.000000
  0.350000  0.150000  0.250000      2.000000
  0.450000  0.150000  0.250000      2.000000
 -0.450000  0.150000  0.250000      2.000000
 -0.350000  0.150000  0.250000      2.000000
 -0.250000  0.150000  0.250000      2.000000
 -0.150000  0.150000  0.250000      2.000000
 -0.050000  0.150000  0.250000      2.000000
  0.050000  0.250000  0.250000      2.000000
  0.150000  0.250000  0.250000      2.000000
  0.250000  0.250000  0.250000      2.000000
  0.350000  0.250000  0.250000      2.000000
  0.450000  0.250000  0.250000      2.000000
 -0.450000  0.250000  0.250000      2.000000
 -0.350000  0.250000  0.250000      2.000000
 -0.250000  0.250000  0.250000      2.000000
 -0.150000  0.250000  0.250000      2.000000
 -0.050000  0.250000  0.250000      2.000000
  0.050000  0.350000  0.250000      2.000000
  0.150000  0.350000  0.250000      2.000000
  0.250000  0.350000  0.250000      2.000000
  0.350000  0.350000  0.250000      2.000000
  0.450000  0.350000  0.250000      2.000000
 -0.450000  0.350000  0.250000      2.000000
 -0.350000  0.350000  0.250000      2.000000
 -0.250000  0.350000  0.250000      2.000000
 -0.150000  0.350000  0.250000      2.000000
 -0.050000  0.350000  0.250000      2.000000
  0.050000  0.450000  0.250000      2.000000
  0.150000  0.450000  0.250000      2.000000
  0.250000  0.450000  0.250000      2.000000
  0.350000  0.450000  0.250000      2.000000
  0.450000  0.450000  0.250000      2.000000
 -0.450000  0.450000  0.250000      2.000000
 -0.350000  0.450000  0.250000      2.000000
 -0.250000  0.450000  0.250000      2.000000
 -0.150000  0.450000  0.250000      2.000000
 -0.050000  0.450000  0.250000      2.000000
  0.050000 -0.450000  0.250000      2.000000
  0.150000 -0.450000  0.250000      2.000000
  0.250000 -0.450000  0.250000      2.000000
  0.350000 -0.450000  0.250000      2.000000
  0.450000 -0.450000  0.250000      2.000000
 -0.450000 -0.450000  0.250000      2.000000
 -0.350000 -0.450000  0.250000      2.000000
 -0.250000 -0.450000  0.250000      2.000000
 -0.150000 -0.450000  0.250000      2.000000
 -0.050000 -0.450000  0.250000      2.000000
  0.050000 -0.350000  0.250000      2.000000
  0.150000 -0.350000  0.250000      2.000000
  0.250000 -0.350000  0.250000      2.000000
  0.350000 -0.350000  0.250000      2.000000
  0.450000 -0.350000  0.250000      2.000000
 -0.450000 -0.350000  0.250000      2.000000
 -0.350000 -0.350000  0.250000      2.000000
 -0.250000 -0.350000  0.250000      2.000000
 -0.150000 -0.350000  0.250000      2.000000
 -0.050000 -0.350000  0.250000      2.000000
  0.050000 -0.250000  0.250000      2.000000
  0.150000 -0.250000  0.250000      2.000000
  0.250000 -0.250000  0.250000      2.000000
  0.350000 -0.250000  0.250000      2.000000
  0.450000 -0.250000  0.250000      2.000000
 -0.450000 -0.250000  0.250000      2.000000
 -0.350000 -0.250000  0.250000      2.000000
 -0.250000 -0.250000  0.250000      2.000000
 -0.150000 -0.250000  0.250000      2.000000
 -0.050000 -0.250000  0.250000      2.000000
  0.050000 -0.150000  0.250000      2.000000
  0.150000 -0.150000  0.250000      2.000000
  0.250000 -0.150000  0.250000      2.000000
  0.350000 -0.150000  0.250000      2.000000
  0.450000 -0.150000  0.250000      2.000000
 -0.450000 -0.150000  0.250000      2.000000
 -0.350000 -0.150000  0.250000      2.000000
 -0.250000 -0.150000  0.250000      2.000000
 -0.150000 -0.150000  0.250000      2.000000
 -0.050000 -0.150000  0.250000      2.000000
  0.050000 -0.050000  0.250000      2.000000
  0.150000 -0.050000  0.250000      2.000000
  0.250000 -0.050000  0.250000      2.000000
  0.350000 -0.050000  0.250000      2.000000
  0.450000 -0.050000  0.250000      2.000000
 -0.450000 -0.050000  0.250000      2.000000
 -0.350000 -0.050000  0.250000      2.000000
 -0.250000 -0.050000  0.250000      2.000000
 -0.150000 -0.050000  0.250000      2.000000
 -0.050000 -0.050000  0.250000      2.000000
  0.050000  0.050000  0.350000      2.000000
  0.150000  0.050000  0.350000      2.000000
  0.250000  0.050000  0.350000      2.000000
  0.350000  0.050000  0.350000      2.000000
  0.450000  0.050000  0.350000      2.000000
 -0.450000  0.050000  0.350000      2.000000
 -0.350000  0.050000  0.350000      2.000000
 -0.250000  0.050000  0.350000      2.000000
 -0.150000  0.050000  0.350000      2.000000
 -0.050000  0.050000  0.350000      2.000000
  0.050000  0.150000  0.350000      2.000000
  0.150000  0.150000  0.350000      2.000000
  0.250000  0.150000  0.350000      2.000000
  0.350000  0.150000  0.350000      2.000000
  0.450000  0.150000  0.350000      2.000000
 -0.450000  0.150000  0.350000      2.000000
 -0.350000  0.150000  0.350000      2.000000
 -0.250000  0.150000  0.350000      2.000000
 -0.150000  0.150000  0.350000      2.000000
 -0.050000  0.150000  0.350000      2.000000
  0.050000  0.250000  0.350000      2.000000
  0.150000  0.250000  0.350000      2.000000
  0.250000  0.250000  0.350000      2.000000
  0.350000  0.250000  0.350000      2.000000
  0.450000  0.250000  0.350000      2.000000
 -0.450000  0.250000  0.350000      2.000000
 -0.350000  0.250000  0.350000      2.000000
 -0.250000  0.250000  0.350000      2.000000
 -0.150000  0.250000  0.350000      2.000000
 -0.050000  0.250000  0.350000      2.000000
  0.050000  0.350000  0.350000      2.000000
  0.150000  0.350000  0.350000      2.000000
  0.250000  0.350000  0.350000      2.000000
  0.350000  0.350000  0.350000      2.000000
  0.450000  0.350000  0.350000      2.000000
 -0.450000  0.350000  0.350000      2.000000
 -0.350000  0.350000  0.350000      2.000000
 -0.250000  0.350000  0.350000      2.000000
 -0.150000  0.350000  0.350000      2.000000
 -0.050000  0.350000  0.350000      2.000000
  0.050000  0.450000  0.350000      2.000000
  0.150000  0.450000  0.350000      2.000000
  0.250000  0.450000  0.350000      2.000000
  0.350000  0.450000  0.350000      2.000000
  0.450000  0.450000  0.350000      2.000000
 -0.450000  0.450000  0.350000      2.000000
 -0.350000  0.450000  0.350000      2.000000
 -0.250000  0.450000  0.350000      2.000000
 -0.150000  0.450000  0.350000      2.000000
 -0.050000  0.450000  0.350000      2.000000
  0.050000 -0.450000  0.350000      2.000000
  0.150000 -0.450000  0.350000      2.000000
  0.250000 -0.450000  0.350000      2.000000
  0.350000 -0.450000  0.350000      2.000000
  0.450000 -0.450000  0.350000      2.000000
 -0.450000 -0.450000  0.350000      2.000000
 -0.350000 -0.450000  0.350000      2.000000
 -0.250000 -0.450000  0.350000      2.000000
 -0.150000 -0.450000  0.350000      2.000000
 -0.050000 -0.450000  0.350000      2.000000
  0.050000 -0.350000  0.350000      2.000000
  0.150000 -0.350000  0.350000      2.000000
  0.250000 -0.350000  0.350000      2.000000
  0.350000 -0.350000  0.350000      2.000000
  0.450000 -0.350000  0.350000      2.000000
 -0.450000 -0.350000  0.350000      2.000000
 -0.350000 -0.350000  0.350000      2.000000
 -0.250000 -0.350000  0.350000      2.000000
 -0.150000 -0.350000  0.350000      2.000000
 -0.050000 -0.350000  0.350000      2.000000
  0.050000 -0.250000  0.350000      2.000000
  0.150000 -0.250000  0.350000      2.000000
  0.250000 -0.250000  0.350000      2.000000
  0.350000 -0.250000  0.350000      2.000000
  0.450000 -0.250000  0.350000      2.000000
 -0.450000 -0.250000  0.350000      2.000000
 -0.350000 -0.250000  0.350000      2.000000
 -0.250000 -0.250000  0.350000      2.000000
 -0.150000 -0.250000  0.350000      2.000000
 -0.050000 -0.250000  0.350000      2.000000
  0.050000 -0.150000  0.350000      2.000000
  0.150000 -0.150000  0.350000      2.000000
  0.250000 -0.150000  0.350000      2.000000
  0.350000 -0.150000  0.350000      2.000000
  0.450000 -0.150000  0.350000      2.000000
 -0.450000 -0.150000  0.350000      2.000000
 -0.350000 -0.150000  0.350000      2.000000
 -0.250000 -0.150000  0.350000      2.000000
 -0.150000 -0.150000  0.350000      2.000000
 -0.050000 -0.150000  0.350000      2.000000
  0.050000 -0.050000  0.350000      2.000000
  0.150000 -0.050000  0.350000      2.000000
  0.250000 -0.050000  0.350000      2.000000
  0.350000 -0.050000  0.350000      2.000000
  0.450000 -0.050000  0.350000      2.000000
 -0.450000 -0.050000  0.350000      2.000000
 -0.350000 -0.050000  0.350000      2.000000
 -0.250000 -0.050000  0.350000      2.000000
 -0.150000 -0.050000  0.350000      2.000000
 -0.050000 -0.050000  0.350000      2.000000
  0.050000  0.050000  0.450000      2.000000
  0.150000  0.050000  0.450000      2.000000
  0.250000  0.050000  0.450000      2.000000
  0.350000  0.050000  0.450000      2.000000
  0.450000  0.050000  0.450000      2.000000
 -0.450000  0.050000  0.450000      2.000000
 -0.350000  0.050000  0.450000      2.000000
 -0.250000  0.050000  0.450000      2.000000
 -0.150000  0.050000  0.450000      2.000000
 -0.050000  0.050000  0.450000      2.000000
  0.050000  0.150000  0.450000      2.000000
  0.150000  0.150000  0.450000      2.000000
  0.250000  0.150000  0.450000      2.000000
  0.350000  0.150000  0.450000      2.000000
  0.450000  0.150000  0.450000      2.000000
 -0.450000  0.150000  0.450000      2.000000
 -0.350000  0.150000  0.450000      2.000000
 -0.250000  0.150000  0.450000      2.000000
 -0.150000  0.150000  0.450000      2.000000
 -0.050000  0.150000  0.450000      2.000000
  0.050000  0.250000  0.450000      2.000000
  0.150000  0.250000  0.450000      2.000000
  0.250000  0.250000  0.450000      2.000000
  0.350000  0.250000  0.450000      2.000000
  0.450000  0.250000  0.450000      2.000000
 -0.450000  0.250000  0.450000      2.000000
 -0.350000  0.250000  0.450000      2.000000
 -0.250000  0.250000  0.450000      2.000000
 -0.150000  0.250000  0.450000      2.000000
 -0.050000  0.250000  0.450000      2.000000
  0.050000  0.350000  0.450000      2.000000
  0.150000  0.350000  0.450000      2.000000
  0.250000  0.350000  0.450000      2.000000
  0.350000  0.350000  0.450000      2.000000
  0.450000  0.350000  0.450000      2.000000
 -0.450000  0.350000  0.450000      2.000000
 -0.350000  0.350000  0.450000      2.000000
 -0.250000  0.350000  0.450000      2.000000
 -0.150000  0.350000  0.450000      2.000000
 -0.050000  0.350000  0.450000      2.000000
  0.050000  0.450000  0.450000      2.000000
  0.150000  0.450000  0.450000      2.000000
  0.250000  0.450000  0.450000      2.000000
  0.350000  0.450000  0.450000      2.000000
  0.450000  0.450000  0.450000      2.000000
 -0.450000  0.450000  0.450000      2.000000
 -0.350000  0.450000  0.450000      2.000000
 -0.250000  0.450000  0.450000      2.000000
 -0.150000  0.450000  0.450000      2.000000
 -0.050000  0.450000  0.450000      2.000000
  0.050000 -0.450000  0.450000      2.000000
  0.150000 -0.450000  0.450000      2.000000
  0.250000 -0.450000  0.450000      2.000000
  0.350000 -0.450000  0.450000      2.000000
  0.450000 -0.450000  0.450000      2.000000
 -0.450000 -0.450000  0.450000      2.000000
 -0.350000 -0.450000  0.450000      2.000000
 -0.250000 -0.450000  0.450000      2.000000
 -0.150000 -0.450000  0.450000      2.000000
 -0.050000 -0.450000  0.450000      2.000000
  0.050000 -0.350000  0.450000      2.000000
  0.150000 -0.350000  0.450000      2.000000
  0.250000 -0.350000  0.450000      2.000000
  0.350000 -0.350000  0.450000      2.000000
  0.450000 -0.350000  0.450000      2.000000
 -0.450000 -0.350000  0.450000      2.000000
 -0.350000 -0.350000  0.450000      2.000000
 -0.250000 -0.350000  0.450000      2.000000
 -0.150000 -0.350000  0.450000      2.000000
 -0.050000 -0.350000  0.450000      2.000000
  0.050000 -0.250000  0.450000      2.000000
  0.150000 -0.250000  0.450000      2.000000
  0.250000 -0.250000  0.450000      2.000000
  0.350000 -0.250000  0.450000      2.000000
  0.450000 -0.250000  0.450000      2.000000
 -0.450000 -0.250000  0.450000      2.000000
 -0.350000 -0.250000  0.450000      2.000000
 -0.250000 -0.250000  0.450000      2.000000
 -0.150000 -0.250000  0.450000      2.000000
 -0.050000 -0.250000  0.450000      2.000000
  0.050000 -0.150000  0.450000      2.000000
  0.150000 -0.150000  0.450000      2.000000
  0.250000 -0.150000  0.450000      2.000000
  0.350000 -0.150000  0.450000      2.000000
  0.450000 -0.150000  0.450000      2.000000
 -0.450000 -0.150000  0.450000      2.000000
 -0.350000 -0.150000  0.450000      2.000000
 -0.250000 -0.150000  0.450000      2.000000
 -0.150000 -0.150000  0.450000      2.000000
 -0.050000 -0.150000  0.450000      2.000000
  0.050000 -0.050000  0.450000      2.000000
  0.150000 -0.050000  0.450000      2.000000
  0.250000 -0.050000  0.450000      2.000000
  0.350000 -0.050000  0.450000      2.000000
  0.450000 -0.050000  0.450000      2.000000
 -0.450000 -0.050000  0.450000      2.000000
 -0.350000 -0.050000  0.450000      2.000000
 -0.250000 -0.050000  0.450000      2.000000
 -0.150000 -0.050000  0.450000      2.000000
 -0.050000 -0.050000  0.450000      2.000000
 


--------------------------------------------------------------------------------------------------------




 Dimension of arrays:
   k-points           NKPTS =    500   k-points in BZ     NKDIM =    500   number of bands    NBANDS=     32
   number of dos      NEDOS =    301   number of ions     NIONS =      2
   non local maximal  LDIM  =      6   non local SUM 2l+1 LMDIM =     18
   total plane-waves  NPLWV =   4096
   max r-space proj   IRMAX =      1   max aug-charges    IRDMAX=   6436
   dimension x,y,z NGX =    16 NGY =   16 NGZ =   16
   dimension x,y,z NGXF=    32 NGYF=   32 NGZF=   32
   support grid    NGXF=    32 NGYF=   32 NGZF=   32
   ions per type =               2
 NGX,Y,Z   is equivalent  to a cutoff of   9.30,  9.30,  9.30 a.u.
 NGXF,Y,Z  is equivalent  to a cutoff of  18.60, 18.60, 18.60 a.u.


 I would recommend the setting:
   dimension x,y,z NGX =    16 NGY =   16 NGZ =   16
 SYSTEM =  Fe Bulk                                 
 POSCAR =  BCC Fe                                  

 Startparameter for this run:
   NWRITE =      2    write-flag & timer
   PREC   = normal    normal or accurate (medium, high low for compatibility)
   ISTART =      0    job   : 0-new  1-cont  2-samecut
   ICHARG =      2    charge: 1-file 2-atom 10-const
   ISPIN  =      2    spin polarized calculation?
   LNONCOLLINEAR =      F non collinear calculations
   LSORBIT =      F    spin-orbit coupling
   INIWAV =      1    electr: 0-lowe 1-rand  2-diag
   LASPH  =      F    aspherical Exc in radial PAW
   METAGGA=      F    non-selfconsistent MetaGGA calc.

 Electronic Relaxation 1
   ENCUT  =  500.0 eV  36.75 Ry    6.06 a.u.   5.21  5.21  5.21*2*pi/ulx,y,z
   ENINI  =  500.0     initial cutoff
   ENAUG  =  511.4 eV  augmentation charge cutoff
   NELM   =     60;   NELMIN=  6; NELMDL= -5     # of ELM steps 
   EDIFF  = 0.1E-04   stopping-criterion for ELM
   LREAL  =      F    real-space projection
   NLSPLINE    = F    spline interpolate recip. space projectors
   LCOMPAT=      F    compatible to vasp.4.4
   GGA_COMPAT  = T    GGA compatible to vasp.4.4-vasp.4.6
   LMAXPAW     = -100 max onsite density
   LMAXMIX     =    2 max onsite mixed and CHGCAR
   VOSKOWN=      0    Vosko Wilk Nusair interpolation
   ROPT   =    0.00000
 Ionic relaxation
   EDIFFG = -.1E-01   stopping-criterion for IOM
   NSW    =     20    number of steps for IOM
   NBLOCK =      1;   KBLOCK =     20    inner block; outer block 
   IBRION =      2    ionic relax: 0-MD 1-quasi-New 2-CG
   NFREE  =      1    steps in history (QN), initial steepest desc. (CG)
   ISIF   =      2    stress and relaxation
   IWAVPR =     11    prediction:  0-non 1-charg 2-wave 3-comb
   ISYM   =      0    0-nonsym 1-usesym 2-fastsym
   LCORR  =      T    Harris-Foulkes like correction to forces

   POTIM  = 0.5000    time-step for ionic-motion
   TEIN   =    0.0    initial temperature
   TEBEG  =    0.0;   TEEND  =   0.0 temperature during run
   SMASS  =  -3.00    Nose mass-parameter (am)
   estimated Nose-frequenzy (Omega)   =  0.10E-29 period in steps =****** mass=  -0.187E-27a.u.
   SCALEE = 1.0000    scale energy and forces
   NPACO  =    256;   APACO  = 16.0  distance and # of slots for P.C.
   PSTRESS=    0.0 pullay stress

  Mass of Ions in am
   POMASS =  55.85
  Ionic Valenz
   ZVAL   =   8.00
  Atomic Wigner-Seitz radii
   RWIGS  =  -1.00
  virtual crystal weights 
   VCA    =   1.00
   NELECT =      16.0000    total number of electrons
   NUPDOWN=      -1.0000    fix difference up-down

 DOS related values:
   EMIN   =  10.00;   EMAX   =-10.00  energy-range for DOS
   EFERMI =   0.00
   ISMEAR =     1;   SIGMA  =   0.20  broadening in eV -4-tet -1-fermi 0-gaus

 Electronic relaxation 2 (details)
   IALGO  =     38    algorithm
   LDIAG  =      T    sub-space diagonalisation (order eigenvalues)
   LSUBROT=      F    optimize rotation matrix (better conditioning)
   TURBO    =      0    0=normal 1=particle mesh
   IRESTART =      0    0=no restart 2=restart with 2 vectors
   NREBOOT  =      0    no. of reboots
   NMIN     =      0    reboot dimension
   EREF     =   0.00    reference energy to select bands
   IMIX   =      4    mixing-type and parameters
     AMIX     =   0.40;   BMIX     =  1.00
     AMIX_MAG =   1.60;   BMIX_MAG =  1.00
     AMIN     =   0.10
     WC   =   100.;   INIMIX=   1;  MIXPRE=   1;  MAXMIX=  40

 Intra band minimization:
   WEIMIN = 0.0010     energy-eigenvalue tresh-hold
   EBREAK =  0.78E-07  absolut break condition
   DEPER  =   0.30     relativ break condition  

   TIME   =   0.40     timestep for ELM

  volume/ion in A,a.u.               =      11.70        78.93
  Fermi-wavevector in a.u.,A,eV,Ry     =   1.442388  2.725718 28.306695  2.080483
  Thomas-Fermi vector in A             =   2.560914
 
 Write flags
   LWAVE  =      F    write WAVECAR
   LCHARG =      F    write CHGCAR
   LVTOT  =      F    write LOCPOT, total local potential
   LVHAR  =      F    write LOCPOT, Hartree potential only
   LELF   =      F    write electronic localiz. function (ELF)
   LORBIT =      0    0 simple, 1 ext, 2 COOP (PROOUT)


 Dipole corrections
   LMONO  =      F    monopole corrections only (constant potential shift)
   LDIPOL =      F    correct potential (dipole corrections)
   IDIPOL =      0    1-x, 2-y, 3-z, 4-all directions 
   EPSILON=  1.0000000 bulk dielectric constant

 Exchange correlation treatment:
   GGA     =    PE    GGA type
   LEXCH   =     8    internal setting for exchange type
   VOSKOWN=      0    Vosko Wilk Nusair interpolation
   LHFCALC =     F    Hartree Fock is set to
   LHFONE  =     F    Hartree Fock one center treatment
   AEXX    =    0.0000 exact exchange contribution

 Linear response parameters
   LEPSILON=     F    determine dielectric tensor
   LRPA    =     F    only Hartree local field effects (RPA)
   LNABLA  =     F    use nabla operator in PAW spheres
   LVEL    =     F    velocity operator in full k-point grid
   LINTERFAST=   F  fast interpolation
   KINTER  =     0    interpolate to denser k-point grid
   CSHIFT  =0.1000    complex shift for real part using Kramers Kronig
   OMEGAMAX=  -1.0    maximum frequency
   DEG_THRESHOLD= 0.2000000E-02 threshold for treating states as degnerate
   RTIME   =    0.100 relaxation time in fs

 Orbital magnetization related:
   ORBITALMAG=     F  switch on orbital magnetization
   LCHIMAG   =     F  perturbation theory with respect to B field
   DQ        =  0.001000  dq finite difference perturbation B field



--------------------------------------------------------------------------------------------------------


 conjugate gradient relaxation of ions
 charge density and potential will be updated during run
 spin polarized calculation
 Variant of blocked Davidson
 Davidson routine will perform the subspace rotation
 perform sub-space diagonalisation
    after iterative eigenvector-optimisation
 modified Broyden-mixing scheme, WC =      100.0
 initial mixing is a Kerker type mixing with AMIX =  0.4000 and BMIX =      1.0000
 Hartree-type preconditioning will be used
 using additional bands           24
 reciprocal scheme for non local part
 use partial core corrections
 calculate Harris-corrections to forces 
   (improved forces if not selfconsistent)
 use gradient corrections 
 use of overlap-Matrix (Vanderbilt PP)
 Methfessel and Paxton  Order N= 1 SIGMA  =   0.20


--------------------------------------------------------------------------------------------------------


  energy-cutoff  :      500.00
  volume of cell :       23.39
      direct lattice vectors                 reciprocal lattice vectors
     2.860000000  0.000000000  0.000000000     0.349650350  0.000000000  0.000000000
     0.000000000  2.860000000  0.000000000     0.000000000  0.349650350  0.000000000
     0.000000000  0.000000000  2.860000000     0.000000000  0.000000000  0.349650350

  length of vectors
     2.860000000  2.860000000  2.860000000     0.349650350  0.349650350  0.349650350


 
 k-points in units of 2pi/SCALE and weight: Automatic mesh                          
   0.05000000  0.05000000  0.05000000       0.002
   0.15000000  0.05000000  0.05000000       0.002
   0.25000000  0.05000000  0.05000000       0.002
   0.35000000  0.05000000  0.05000000       0.002
   0.45000000  0.05000000  0.05000000       0.002
  -0.45000000  0.05000000  0.05000000       0.002
  -0.35000000  0.05000000  0.05000000       0.002
  -0.25000000  0.05000000  0.05000000       0.002
  -0.15000000  0.05000000  0.05000000       0.002
  -0.05000000  0.05000000  0.05000000       0.002
   0.05000000  0.15000000  0.05000000       0.002
   0.15000000  0.15000000  0.05000000       0.002
   0.25000000  0.15000000  0.05000000       0.002
   0.35000000  0.15000000  0.05000000       0.002
   0.45000000  0.15000000  0.05000000       0.002
  -0.45000000  0.15000000  0.05000000       0.002
  -0.35000000  0.15000000  0.05000000       0.002
  -0.25000000  0.15000000  0.05000000       0.002
  -0.15000000  0.15000000  0.05000000       0.002
  -0.05000000  0.15000000  0.05000000       0.002
   0.05000000  0.25000000  0.05000000       0.002
   0.15000000  0.25000000  0.05000000       0.002
   0.25000000  0.25000000  0.05000000       0.002
   0.35000000  0.25000000  0.05000000       0.002
   0.45000000  0.25000000  0.05000000       0.002
  -0.45000000  0.25000000  0.05000000       0.002
  -0.35000000  0.25000000  0.05000000       0.002
  -0.25000000  0.25000000  0.05000000       0.002
  -0.15000000  0.25000000  0.05000000       0.002
  -0.05000000  0.25000000  0.05000000       0.002
   0.05000000  0.35000000  0.05000000       0.002
   0.15000000  0.35000000  0.05000000       0.002
   0.25000000  0.35000000  0.05000000       0.002
   0.35000000  0.35000000  0.05000000       0.002
   0.45000000  0.35000000  0.05000000       0.002
  -0.45000000  0.35000000  0.05000000       0.002
  -0.35000000  0.35000000  0.05000000       0.002
  -0.25000000  0.35000000  0.05000000       0.002
  -0.15000000  0.35000000  0.05000000       0.002
  -0.05000000  0.35000000  0.05000000       0.002
   0.05000000  0.45000000  0.05000000       0.002
   0.15000000  0.45000000  0.05000000       0.002
   0.25000000  0.45000000  0.05000000       0.002
   0.35000000  0.45000000  0.05000000       0.002
   0.45000000  0.45000000  0.05000000       0.002
  -0.45000000  0.45000000  0.05000000       0.002
  -0.35000000  0.45000000  0.05000000       0.002
  -0.25000000  0.45000000  0.05000000       0.002
  -0.15000000  0.45000000  0.05000000       0.002
  -0.05000000  0.45000000  0.05000000       0.002
   0.05000000 -0.45000000  0.05000000       0.002
   0.15000000 -0.45000000  0.05000000       0.002
   0.25000000 -0.45000000  0.05000000       0.002
   0.35000000 -0.45000000  0.05000000       0.002
   0.45000000 -0.45000000  0.05000000       0.002
  -0.45000000 -0.45000000  0.05000000       0.002
  -0.35000000 -0.45000000  0.05000000       0.002
  -0.25000000 -0.45000000  0.05000000       0.002
  -0.15000000 -0.45000000  0.05000000       0.002
  -0.05000000 -0.45000000  0.05000000       0.002
   0.05000000 -0.35000000  0.05000000       0.002
   0.15000000 -0.35000000  0.05000000       0.002
   0.25000000 -0.35000000  0.05000000       0.002
   0.35000000 -0.35000000  0.05000000       0.002
   0.45000000 -0.35000000  0.05000000       0.002
  -0.45000000 -0.35000000  0.05000000       0.002
  -0.35000000 -0.35000000  0.05000000       0.002
  -0.25000000 -0.35000000  0.05000000       0.002
  -0.15000000 -0.35000000  0.05000000       0.002
  -0.05000000 -0.35000000  0.05000000       0.002
   0.05000000 -0.25000000  0.05000000       0.002
   0.15000000 -0.25000000  0.05000000       0.002
   0.25000000 -0.25000000  0.05000000       0.002
   0.35000000 -0.25000000  0.05000000       0.002
   0.45000000 -0.25000000  0.05000000       0.002
  -0.45000000 -0.25000000  0.05000000       0.002
  -0.35000000 -0.25000000  0.05000000       0.002
  -0.25000000 -0.25000000  0.05000000       0.002
  -0.15000000 -0.25000000  0.05000000       0.002
  -0.05000000 -0.25000000  0.05000000       0.002
   0.05000000 -0.15000000  0.05000000       0.002
   0.15000000 -0.15000000  0.05000000       0.002
   0.25000000 -0.15000000  0.05000000       0.002
   0.35000000 -0.15000000  0.05000000       0.002
   0.45000000 -0.15000000  0.05000000       0.002
  -0.45000000 -0.15000000  0.05000000       0.002
  -0.35000000 -0.15000000  0.05000000       0.002
  -0.25000000 -0.15000000  0.05000000       0.002
  -0.15000000 -0.15000000  0.05000000       0.002
  -0.05000000 -0.15000000  0.05000000       0.002
   0.05000000 -0.05000000  0.05000000       0.002
   0.15000000 -0.05000000  0.05000000       0.002
   0.25000000 -0.05000000  0.05000000       0.002
   0.35000000 -0.05000000  0.05000000       0.002
   0.45000000 -0.05000000  0.05000000       0.002
  -0.45000000 -0.05000000  0.05000000       0.002
  -0.35000000 -0.05000000  0.05000000       0.002
  -0.25000000 -0.05000000  0.05000000       0.002
  -0.15000000 -0.05000000  0.05000000       0.002
  -0.05000000 -0.05000000  0.05000000       0.002
   0.05000000  0.05000000  0.15000000       0.002
   0.15000000  0.05000000  0.15000000       0.002
   0.25000000  0.05000000  0.15000000       0.002
   0.35000000  0.05000000  0.15000000       0.002
   0.45000000  0.05000000  0.15000000       0.002
  -0.45000000  0.05000000  0.15000000       0.002
  -0.35000000  0.05000000  0.15000000       0.002
  -0.25000000  0.05000000  0.15000000       0.002
  -0.15000000  0.05000000  0.15000000       0.002
  -0.05000000  0.05000000  0.15000000       0.002
   0.05000000  0.15000000  0.15000000       0.002
   0.15000000  0.15000000  0.15000000       0.002
   0.25000000  0.15000000  0.15000000       0.002
   0.35000000  0.15000000  0.15000000       0.002
   0.45000000  0.15000000  0.15000000       0.002
  -0.45000000  0.15000000  0.15000000       0.002
  -0.35000000  0.15000000  0.15000000       0.002
  -0.25000000  0.15000000  0.15000000       0.002
  -0.15000000  0.15000000  0.15000000       0.002
  -0.05000000  0.15000000  0.15000000       0.002
   0.05000000  0.25000000  0.15000000       0.002
   0.15000000  0.25000000  0.15000000       0.002
   0.25000000  0.25000000  0.15000000       0.002
   0.35000000  0.25000000  0.15000000       0.002
   0.45000000  0.25000000  0.15000000       0.002
  -0.45000000  0.25000000  0.15000000       0.002
  -0.35000000  0.25000000  0.15000000       0.002
  -0.25000000  0.25000000  0.15000000       0.002
  -0.15000000  0.25000000  0.15000000       0.002
  -0.05000000  0.25000000  0.15000000       0.002
   0.05000000  0.35000000  0.15000000       0.002
   0.15000000  0.35000000  0.15000000       0.002
   0.25000000  0.35000000  0.15000000       0.002
   0.35000000  0.35000000  0.15000000       0.002
   0.45000000  0.35000000  0.15000000       0.002
  -0.45000000  0.35000000  0.15000000       0.002
  -0.35000000  0.35000000  0.15000000       0.002
  -0.25000000  0.35000000  0.15000000       0.002
  -0.15000000  0.35000000  0.15000000       0.002
  -0.05000000  0.35000000  0.15000000       0.002
   0.05000000  0.45000000  0.15000000       0.002
   0.15000000  0.45000000  0.15000000       0.002
   0.25000000  0.45000000  0.15000000       0.002
   0.35000000  0.45000000  0.15000000       0.002
   0.45000000  0.45000000  0.15000000       0.002
  -0.45000000  0.45000000  0.15000000       0.002
  -0.35000000  0.45000000  0.15000000       0.002
  -0.25000000  0.45000000  0.15000000       0.002
  -0.15000000  0.45000000  0.15000000       0.002
  -0.05000000  0.45000000  0.15000000       0.002
   0.05000000 -0.45000000  0.15000000       0.002
   0.15000000 -0.45000000  0.15000000       0.002
   0.25000000 -0.45000000  0.15000000       0.002
   0.35000000 -0.45000000  0.15000000       0.002
   0.45000000 -0.45000000  0.15000000       0.002
  -0.45000000 -0.45000000  0.15000000       0.002
  -0.35000000 -0.45000000  0.15000000       0.002
  -0.25000000 -0.45000000  0.15000000       0.002
  -0.15000000 -0.45000000  0.15000000       0.002
  -0.05000000 -0.45000000  0.15000000       0.002
   0.05000000 -0.35000000  0.15000000       0.002
   0.15000000 -0.35000000  0.15000000       0.002
   0.25000000 -0.35000000  0.15000000       0.002
   0.35000000 -0.35000000  0.15000000       0.002
   0.45000000 -0.35000000  0.15000000       0.002
  -0.45000000 -0.35000000  0.15000000       0.002
  -0.35000000 -0.35000000  0.15000000       0.002
  -0.25000000 -0.35000000  0.15000000       0.002
  -0.15000000 -0.35000000  0.15000000       0.002
  -0.05000000 -0.35000000  0.15000000       0.002
   0.05000000 -0.25000000  0.15000000       0.002
   0.15000000 -0.25000000  0.15000000       0.002
   0.25000000 -0.25000000  0.15000000       0.002
   0.35000000 -0.25000000  0.15000000       0.002
   0.45000000 -0.25000000  0.15000000       0.002
  -0.45000000 -0.25000000  0.15000000       0.002
  -0.35000000 -0.25000000  0.15000000       0.002
  -0.25000000 -0.25000000  0.15000000       0.002
  -0.15000000 -0.25000000  0.15000000       0.002
  -0.05000000 -0.25000000  0.15000000       0.002
   0.05000000 -0.15000000  0.15000000       0.002
   0.15000000 -0.15000000  0.15000000       0.002
   0.25000000 -0.15000000  0.15000000       0.002
   0.35000000 -0.15000000  0.15000000       0.002
   0.45000000 -0.15000000  0.15000000       0.002
  -0.45000000 -0.15000000  0.15000000       0.002
  -0.35000000 -0.15000000  0.15000000       0.002
  -0.25000000 -0.15000000  0.15000000       0.002
  -0.15000000 -0.15000000  0.15000000       0.002
  -0.05000000 -0.15000000  0.15000000       0.002
   0.05000000 -0.05000000  0.15000000       0.002
   0.15000000 -0.05000000  0.15000000       0.002
   0.25000000 -0.05000000  0.15000000       0.002
   0.35000000 -0.05000000  0.15000000       0.002
   0.45000000 -0.05000000  0.15000000       0.002
  -0.45000000 -0.05000000  0.15000000       0.002
  -0.35000000 -0.05000000  0.15000000       0.002
  -0.25000000 -0.05000000  0.15000000       0.002
  -0.15000000 -0.05000000  0.15000000       0.002
  -0.05000000 -0.05000000  0.15000000       0.002
   0.05000000  0.05000000  0.25000000       0.002
   0.15000000  0.05000000  0.25000000       0.002
   0.25000000  0.05000000  0.25000000       0.002
   0.35000000  0.05000000  0.25000000       0.002
   0.45000000  0.05000000  0.25000000       0.002
  -0.45000000  0.05000000  0.25000000       0.002
  -0.35000000  0.05000000  0.25000000       0.002
  -0.25000000  0.05000000  0.25000000       0.002
  -0.15000000  0.05000000  0.25000000       0.002
  -0.05000000  0.05000000  0.25000000       0.002
   0.05000000  0.15000000  0.25000000       0.002
   0.15000000  0.15000000  0.25000000       0.002
   0.25000000  0.15000000  0.25000000       0.002
   0.35000000  0.15000000  0.25000000       0.002
   0.45000000  0.15000000  0.25000000       0.002
  -0.45000000  0.15000000  0.25000000       0.002
  -0.35000000  0.15000000  0.25000000       0.002
  -0.25000000  0.15000000  0.25000000       0.002
  -0.15000000  0.15000000  0.25000000       0.002
  -0.05000000  0.15000000  0.25000000       0.002
   0.05000000  0.25000000  0.25000000       0.002
   0.15000000  0.25000000  0.25000000       0.002
   0.25000000  0.25000000  0.25000000       0.002
   0.35000000  0.25000000  0.25000000       0.002
   0.45000000  0.25000000  0.25000000       0.002
  -0.45000000  0.25000000  0.25000000       0.002
  -0.35000000  0.25000000  0.25000000       0.002
  -0.25000000  0.25000000  0.25000000       0.002
  -0.15000000  0.25000000  0.25000000       0.002
  -0.05000000  0.25000000  0.25000000       0.002
   0.05000000  0.35000000  0.25000000       0.002
   0.15000000  0.35000000  0.25000000       0.002
   0.25000000  0.35000000  0.25000000       0.002
   0.35000000  0.35000000  0.25000000       0.002
   0.45000000  0.35000000  0.25000000       0.002
  -0.45000000  0.35000000  0.25000000       0.002
  -0.35000000  0.35000000  0.25000000       0.002
  -0.25000000  0.35000000  0.25000000       0.002
  -0.15000000  0.35000000  0.25000000       0.002
  -0.05000000  0.35000000  0.25000000       0.002
   0.05000000  0.45000000  0.25000000       0.002
   0.15000000  0.45000000  0.25000000       0.002
   0.25000000  0.45000000  0.25000000       0.002
   0.35000000  0.45000000  0.25000000       0.002
   0.45000000  0.45000000  0.25000000       0.002
  -0.45000000  0.45000000  0.25000000       0.002
  -0.35000000  0.45000000  0.25000000       0.002
  -0.25000000  0.45000000  0.25000000       0.002
  -0.15000000  0.45000000  0.25000000       0.002
  -0.05000000  0.45000000  0.25000000       0.002
   0.05000000 -0.45000000  0.25000000       0.002
   0.15000000 -0.45000000  0.25000000       0.002
   0.25000000 -0.45000000  0.25000000       0.002
   0.35000000 -0.45000000  0.25000000       0.002
   0.45000000 -0.45000000  0.25000000       0.002
  -0.45000000 -0.45000000  0.25000000       0.002
  -0.35000000 -0.45000000  0.25000000       0.002
  -0.25000000 -0.45000000  0.25000000       0.002
  -0.15000000 -0.45000000  0.25000000       0.002
  -0.05000000 -0.45000000  0.25000000       0.002
   0.05000000 -0.35000000  0.25000000       0.002
   0.15000000 -0.35000000  0.25000000       0.002
   0.25000000 -0.35000000  0.25000000       0.002
   0.35000000 -0.35000000  0.25000000       0.002
   0.45000000 -0.35000000  0.25000000       0.002
  -0.45000000 -0.35000000  0.25000000       0.002
  -0.35000000 -0.35000000  0.25000000       0.002
  -0.25000000 -0.35000000  0.25000000       0.002
  -0.15000000 -0.35000000  0.25000000       0.002
  -0.05000000 -0.35000000  0.25000000       0.002
   0.05000000 -0.25000000  0.25000000       0.002
   0.15000000 -0.25000000  0.25000000       0.002
   0.25000000 -0.25000000  0.25000000       0.002
   0.35000000 -0.25000000  0.25000000       0.002
   0.45000000 -0.25000000  0.25000000       0.002
  -0.45000000 -0.25000000  0.25000000       0.002
  -0.35000000 -0.25000000  0.25000000       0.002
  -0.25000000 -0.25000000  0.25000000       0.002
  -0.15000000 -0.25000000  0.25000000       0.002
  -0.05000000 -0.25000000  0.25000000       0.002
   0.05000000 -0.15000000  0.25000000       0.002
   0.15000000 -0.15000000  0.25000000       0.002
   0.25000000 -0.15000000  0.25000000       0.002
   0.35000000 -0.15000000  0.25000000       0.002
   0.45000000 -0.15000000  0.25000000       0.002
  -0.45000000 -0.15000000  0.25000000       0.002
  -0.35000000 -0.15000000  0.25000000       0.002
  -0.25000000 -0.15000000  0.25000000       0.002
  -0.15000000 -0.15000000  0.25000000       0.002
  -0.05000000 -0.15000000  0.25000000       0.002
   0.05000000 -0.05000000  0.25000000       0.002
   0.15000000 -0.05000000  0.25000000       0.002
   0.25000000 -0.05000000  0.25000000       0.002
   0.35000000 -0.05000000  0.25000000       0.002
   0.45000000 -0.05000000  0.25000000       0.002
  -0.45000000 -0.05000000  0.25000000       0.002
  -0.35000000 -0.05000000  0.25000000       0.002
  -0.25000000 -0.05000000  0.25000000       0.002
  -0.15000000 -0.05000000  0.25000000       0.002
  -0.05000000 -0.05000000  0.25000000       0.002
   0.05000000  0.05000000  0.35000000       0.002
   0.15000000  0.05000000  0.35000000       0.002
   0.25000000  0.05000000  0.35000000       0.002
   0.35000000  0.05000000  0.35000000       0.002
   0.45000000  0.05000000  0.35000000       0.002
  -0.45000000  0.05000000  0.35000000       0.002
  -0.35000000  0.05000000  0.35000000       0.002
  -0.25000000  0.05000000  0.35000000       0.002
  -0.15000000  0.05000000  0.35000000       0.002
  -0.05000000  0.05000000  0.35000000       0.002
   0.05000000  0.15000000  0.35000000       0.002
   0.15000000  0.15000000  0.35000000       0.002
   0.25000000  0.15000000  0.35000000       0.002
   0.35000000  0.15000000  0.35000000       0.002
   0.45000000  0.15000000  0.35000000       0.002
  -0.45000000  0.15000000  0.35000000       0.002
  -0.35000000  0.15000000  0.35000000       0.002
  -0.25000000  0.15000000  0.35000000       0.002
  -0.15000000  0.15000000  0.35000000       0.002
  -0.05000000  0.15000000  0.35000000       0.002
   0.05000000  0.25000000  0.35000000       0.002
   0.15000000  0.25000000  0.35000000       0.002
   0.25000000  0.25000000  0.35000000       0.002
   0.35000000  0.25000000  0.35000000       0.002
   0.45000000  0.25000000  0.35000000       0.002
  -0.45000000  0.25000000  0.35000000       0.002
  -0.35000000  0.25000000  0.35000000       0.002
  -0.25000000  0.25000000  0.35000000       0.002
  -0.15000000  0.25000000  0.35000000       0.002
  -0.05000000  0.25000000  0.35000000       0.002
   0.05000000  0.35000000  0.35000000       0.002
   0.15000000  0.35000000  0.35000000       0.002
   0.25000000  0.35000000  0.35000000       0.002
   0.35000000  0.35000000  0.35000000       0.002
   0.45000000  0.35000000  0.35000000       0.002
  -0.45000000  0.35000000  0.35000000       0.002
  -0.35000000  0.35000000  0.35000000       0.002
  -0.25000000  0.35000000  0.35000000       0.002
  -0.15000000  0.35000000  0.35000000       0.002
  -0.05000000  0.35000000  0.35000000       0.002
   0.05000000  0.45000000  0.35000000       0.002
   0.15000000  0.45000000  0.35000000       0.002
   0.25000000  0.45000000  0.35000000       0.002
   0.35000000  0.45000000  0.35000000       0.002
   0.45000000  0.45000000  0.35000000       0.002
  -0.45000000  0.45000000  0.35000000       0.002
  -0.35000000  0.45000000  0.35000000       0.002
  -0.25000000  0.45000000  0.35000000       0.002
  -0.15000000  0.45000000  0.35000000       0.002
  -0.05000000  0.45000000  0.35000000       0.002
   0.05000000 -0.45000000  0.35000000       0.002
   0.15000000 -0.45000000  0.35000000       0.002
   0.25000000 -0.45000000  0.35000000       0.002
   0.35000000 -0.45000000  0.35000000       0.002
   0.45000000 -0.45000000  0.35000000       0.002
  -0.45000000 -0.45000000  0.35000000       0.002
  -0.35000000 -0.45000000  0.35000000       0.002
  -0.25000000 -0.45000000  0.35000000       0.002
  -0.15000000 -0.45000000  0.35000000       0.002
  -0.05000000 -0.45000000  0.35000000       0.002
   0.05000000 -0.35000000  0.35000000       0.002
   0.15000000 -0.35000000  0.35000000       0.002
   0.25000000 -0.35000000  0.35000000       0.002
   0.35000000 -0.35000000  0.35000000       0.002
   0.45000000 -0.35000000  0.35000000       0.002
  -0.45000000 -0.35000000  0.35000000       0.002
  -0.35000000 -0.35000000  0.35000000       0.002
  -0.25000000 -0.35000000  0.35000000       0.002
  -0.15000000 -0.35000000  0.35000000       0.002
  -0.05000000 -0.35000000  0.35000000       0.002
   0.05000000 -0.25000000  0.35000000       0.002
   0.15000000 -0.25000000  0.35000000       0.002
   0.25000000 -0.25000000  0.35000000       0.002
   0.35000000 -0.25000000  0.35000000       0.002
   0.45000000 -0.25000000  0.35000000       0.002
  -0.45000000 -0.25000000  0.35000000       0.002
  -0.35000000 -0.25000000  0.35000000       0.002
  -0.25000000 -0.25000000  0.35000000       0.002
  -0.15000000 -0.25000000  0.35000000       0.002
  -0.05000000 -0.25000000  0.35000000       0.002
[...]
      8       7.0715     -0.00000
      9       7.4390     -0.00000
     10       7.7169     -0.00000
     11       8.2019     -0.00000
     12       8.4062     -0.00000
     13      14.0268      0.00000
     14      14.5127      0.00000
     15      23.1259      0.00000
     16      23.5225      0.00000
     17      25.2570      0.00000
     18      25.6586      0.00000
     19      29.4645      0.00000
     20      29.8986      0.00000
     21      33.3215      0.00000
     22      33.6975      0.00000
     23      38.0174      0.00000
     24      39.6498      0.00000
     25      42.5553      0.00000
     26      44.6262      0.00000
     27      45.6390      0.00000
     28      47.0903      0.00000
     29      51.8088      0.00000
     30      52.9699      0.00000
     31      53.0912      0.00000
     32      55.0010      0.00000

 k-point   496 :      -0.4500   -0.0500    0.4500
  band No.  band energies     occupation 
      1       2.0409      1.00000
      2       2.1772      1.00000
      3       4.0284      1.00000
      4       4.0655      1.00000
      5       5.7265     -0.03525
      6       5.7937     -0.02655
      7       7.0055     -0.00000
      8       7.0715     -0.00000
      9       7.4390     -0.00000
     10       7.7169     -0.00000
     11       8.2019     -0.00000
     12       8.4062     -0.00000
     13      14.0268      0.00000
     14      14.5127      0.00000
     15      23.1259      0.00000
     16      23.5225      0.00000
     17      25.2570      0.00000
     18      25.6586      0.00000
     19      29.4645      0.00000
     20      29.8986      0.00000
     21      33.3215      0.00000
     22      33.6975      0.00000
     23      38.0174      0.00000
     24      39.6498      0.00000
     25      42.5553      0.00000
     26      44.6262      0.00000
     27      45.6390      0.00000
     28      47.0903      0.00000
     29      51.8088      0.00000
     30      52.9699      0.00000
     31      53.0912      0.00000
     32      55.0010      0.00000

 k-point   497 :      -0.3500   -0.0500    0.4500
  band No.  band energies     occupation 
      1       1.8813      1.00000
      2       2.3256      1.00000
      3       4.1713      1.00000
      4       4.2797      1.00000
      5       5.0816      1.00711
      6       5.1821      1.02613
      7       6.8036     -0.00000
      8       6.9567     -0.00000
      9       7.5384     -0.00000
     10       7.8789     -0.00000
     11       7.9589     -0.00000
     12       8.6633     -0.00000
     13      14.5916      0.00000
     14      15.8281      0.00000
     15      22.5013      0.00000
     16      23.5897      0.00000
     17      24.9397      0.00000
     18      25.8991      0.00000
     19      29.9908      0.00000
     20      31.0367      0.00000
     21      33.6330      0.00000
     22      34.3750      0.00000
     23      35.5999      0.00000
     24      37.4886      0.00000
     25      42.7235      0.00000
     26      42.8840      0.00000
     27      47.9462      0.00000
     28      48.6520      0.00000
     29      49.9234      0.00000
     30      51.8495      0.00000
     31      53.1358      0.00000
     32      54.8721      0.00000

 k-point   498 :      -0.2500   -0.0500    0.4500
  band No.  band energies     occupation 
      1       1.6112      1.00000
      2       2.4063      1.00000
      3       4.4613      1.00000
      4       4.4624      1.00000
      5       4.7138      1.00000
      6       4.7639      1.00000
      7       6.5070     -0.00000
      8       6.6434     -0.00000
      9       7.4068     -0.00000
     10       7.6769     -0.00000
     11       7.8247     -0.00000
     12       8.6961     -0.00000
     13      16.1848      0.00000
     14      17.7629      0.00000
     15      21.8421      0.00000
     16      23.3789      0.00000
     17      24.7818      0.00000
     18      25.9817      0.00000
     19      31.1078      0.00000
     20      31.1929      0.00000
     21      33.2879      0.00000
     22      33.3555      0.00000
     23      35.7343      0.00000
     24      36.5931      0.00000
     25      41.4570      0.00000
     26      43.9447      0.00000
     27      46.4781      0.00000
     28      47.9813      0.00000
     29      48.0830      0.00000
     30      51.2119      0.00000
     31      51.7838      0.00000
     32      53.5032      0.00000

 k-point   499 :      -0.1500   -0.0500    0.4500
  band No.  band energies     occupation 
      1       1.2695      1.00000
      2       2.3054      1.00000
      3       4.3399      1.00000
      4       4.7060      1.00000
      5       4.9420      1.00038
      6       5.1665      1.02253
      7       6.1594     -0.00001
      8       6.1855     -0.00000
      9       6.9538     -0.00000
     10       7.2972     -0.00000
     11       7.8506     -0.00000
     12       8.5365     -0.00000
     13      18.4546      0.00000
     14      20.1301      0.00000
     15      21.3275      0.00000
     16      23.1031      0.00000
     17      24.6629      0.00000
     18      25.9539      0.00000
     19      28.1482      0.00000
     20      29.5326      0.00000
     21      33.9162      0.00000
     22      35.2704      0.00000
     23      37.1013      0.00000
     24      38.4548      0.00000
     25      40.7270      0.00000
     26      42.9384      0.00000
     27      44.3405      0.00000
     28      44.6369      0.00000
     29      48.7593      0.00000
     30      48.9469      0.00000
     31      50.2070      0.00000
     32      53.3648      0.00000

 k-point   500 :      -0.0500   -0.0500    0.4500
  band No.  band energies     occupation 
      1       1.0368      1.00000
      2       2.1550      1.00000
      3       4.4612      1.00000
      4       4.9968      1.00138
      5       5.3265      0.99300
      6       5.6075      0.08304
      7       5.7280     -0.03532
      8       5.8768     -0.00967
      9       6.5040     -0.00000
     10       6.8992     -0.00000
     11       7.8674     -0.00000
     12       8.4021     -0.00000
     13      20.8719      0.00000
     14      21.1780      0.00000
     15      22.5008      0.00000
     16      23.1914      0.00000
     17      24.0325      0.00000
     18      25.3765      0.00000
     19      25.7172      0.00000
     20      27.0750      0.00000
     21      36.2290      0.00000
     22      37.7462      0.00000
     23      38.2449      0.00000
     24      39.5723      0.00000
     25      40.5057      0.00000
     26      40.5337      0.00000
     27      42.0056      0.00000
     28      43.6561      0.00000
     29      46.7870      0.00000
     30      47.7581      0.00000
     31      50.4234      0.00000
     32      53.2334      0.00000


--------------------------------------------------------------------------------------------------------


 soft charge-density along one line, spin component           1
         0         1         2         3         4         5         6         7         8         9
 total charge-density along one line
 
 soft charge-density along one line, spin component           2
         0         1         2         3         4         5         6         7         8         9
 total charge-density along one line
 
 pseudopotential strength for first ion, spin component:           1
 -5.795  -0.000   0.000   0.000  -0.000  -6.320  -0.000   0.000
 -0.000  -5.795  -0.000   0.000   0.000  -0.000  -6.320  -0.000
  0.000  -0.000  -5.961   0.000  -0.000   0.000  -0.000  -6.482
  0.000   0.000   0.000  -5.795   0.000   0.000   0.000   0.000
 -0.000   0.000  -0.000   0.000  -5.961  -0.000   0.000  -0.000
 -6.320  -0.000   0.000   0.000  -0.000  -6.803  -0.000   0.000
 -0.000  -6.320  -0.000   0.000   0.000  -0.000  -6.803  -0.000
  0.000  -0.000  -6.482   0.000  -0.000   0.000  -0.000  -6.960
  0.000   0.000   0.000  -6.320   0.000   0.000   0.000   0.000
 -0.000   0.000  -0.000   0.000  -6.482  -0.000   0.000  -0.000
 -0.000   0.000   0.000   0.000   0.000  -0.000   0.000   0.000
 -0.000   0.000   0.000   0.000   0.000  -0.000   0.000   0.000
  0.000   0.000  -0.000  -0.000  -0.000   0.000   0.000  -0.000
 -0.000   0.000   0.000   0.000  -0.000  -0.000   0.000   0.000
  0.000  -0.000  -0.000   0.000   0.000   0.000  -0.000  -0.000
  0.000   0.000  -0.000  -0.000  -0.000   0.000   0.000  -0.000
 -0.000   0.000   0.000   0.000  -0.000  -0.000   0.000   0.000
  0.000  -0.000  -0.000   0.000   0.000   0.000  -0.000  -0.000
 pseudopotential strength for first ion, spin component:           2
 -4.286   0.000  -0.000  -0.000   0.000  -4.858   0.000  -0.000
  0.000  -4.286  -0.000  -0.000   0.000   0.000  -4.858  -0.000
 -0.000  -0.000  -4.068  -0.000   0.000  -0.000  -0.000  -4.645
 -0.000  -0.000  -0.000  -4.286   0.000  -0.000  -0.000  -0.000
  0.000   0.000   0.000   0.000  -4.068   0.000   0.000   0.000
 -4.858   0.000  -0.000  -0.000   0.000  -5.388   0.000  -0.000
  0.000  -4.858  -0.000  -0.000   0.000   0.000  -5.388  -0.000
 -0.000  -0.000  -4.645  -0.000   0.000  -0.000  -0.000  -5.179
 -0.000  -0.000  -0.000  -4.858   0.000  -0.000  -0.000  -0.000
  0.000   0.000   0.000   0.000  -4.645   0.000   0.000   0.000
  0.000   0.000   0.000  -0.000  -0.000   0.000   0.000   0.000
  0.000   0.000   0.000  -0.000  -0.000   0.000   0.000   0.000
 -0.000   0.000  -0.000  -0.000   0.000  -0.000   0.000  -0.000
 -0.000  -0.000   0.000  -0.000   0.000  -0.000  -0.000   0.000
 -0.000  -0.000  -0.000   0.000   0.000  -0.000  -0.000  -0.000
 -0.000   0.000   0.000  -0.000   0.000  -0.000   0.000   0.000
 -0.000  -0.000   0.000  -0.000   0.000  -0.000  -0.000   0.000
 -0.000  -0.000   0.000   0.000  -0.000  -0.000  -0.000  -0.000
 total augmentation occupancy for first ion, spin component:           1
  2.296  -0.000  -0.000  -0.000   0.000  -1.240   0.000   0.000   0.000  -0.000  -0.000   0.000   0.000  -0.000   0.000  -0.000
 -0.000   2.296   0.000  -0.000  -0.000   0.000  -1.240  -0.000   0.000   0.000  -0.000   0.000   0.000   0.000   0.000  -0.000
 -0.000   0.000   3.533  -0.000  -0.000   0.000  -0.000  -2.231   0.000   0.000   0.000  -0.000   0.000  -0.000  -0.000  -0.000
 -0.000  -0.000  -0.000   2.296  -0.000   0.000   0.000   0.000  -1.240   0.000  -0.000   0.000  -0.000  -0.000  -0.000   0.000
  0.000  -0.000  -0.000  -0.000   3.533  -0.000  -0.000   0.000   0.000  -2.231  -0.000   0.000  -0.000  -0.000  -0.000   0.000
 -1.240   0.000   0.000   0.000  -0.000   1.577  -0.000  -0.000  -0.000   0.000   0.000  -0.000  -0.000  -0.000  -0.000   0.000
  0.000  -1.240  -0.000   0.000  -0.000  -0.000   1.577   0.000  -0.000   0.000  -0.000   0.000  -0.000  -0.000  -0.000   0.000
  0.000  -0.000  -2.231   0.000   0.000  -0.000   0.000   2.190  -0.000  -0.000  -0.000   0.000  -0.000   0.000   0.000   0.000
  0.000   0.000   0.000  -1.240   0.000  -0.000  -0.000  -0.000   1.577  -0.000  -0.000   0.000   0.000   0.000   0.000  -0.000
 -0.000   0.000   0.000   0.000  -2.231   0.000   0.000  -0.000  -0.000   2.190   0.000  -0.000   0.000   0.000  -0.000  -0.000
 -0.000  -0.000   0.000  -0.000  -0.000   0.000  -0.000  -0.000  -0.000   0.000   2.346  -0.269   0.000  -0.000   0.000  -0.000
  0.000   0.000  -0.000   0.000   0.000  -0.000   0.000   0.000   0.000  -0.000  -0.269   0.036  -0.000   0.000  -0.000  -0.000
  0.000   0.000   0.000  -0.000  -0.000  -0.000  -0.000  -0.000   0.000   0.000   0.000  -0.000   0.279  -0.000   0.000  -0.024
 -0.000   0.000  -0.000  -0.000  -0.000  -0.000  -0.000   0.000   0.000   0.000  -0.000   0.000  -0.000   0.279  -0.000   0.000
  0.000   0.000  -0.000  -0.000  -0.000  -0.000  -0.000   0.000   0.000  -0.000   0.000  -0.000   0.000  -0.000   0.279  -0.000
 -0.000  -0.000  -0.000   0.000   0.000   0.000   0.000   0.000  -0.000  -0.000  -0.000  -0.000  -0.024   0.000  -0.000   0.002
  0.000  -0.000   0.000   0.000   0.000   0.000   0.000  -0.000  -0.000  -0.000   0.000  -0.000   0.000  -0.024  -0.000  -0.000
 -0.000  -0.000   0.000   0.000   0.000   0.000   0.000  -0.000  -0.000   0.000  -0.000   0.000   0.000   0.000  -0.024  -0.000
 total augmentation occupancy for first ion, spin component:           2
  1.948  -0.000  -0.000  -0.000   0.000  -0.810   0.000   0.000   0.000  -0.000  -0.000   0.000   0.000  -0.000   0.000  -0.000
 -0.000   1.948   0.000  -0.000  -0.000   0.000  -0.810  -0.000   0.000   0.000  -0.000   0.000   0.000   0.000   0.000  -0.000
 -0.000   0.000   3.045   0.000  -0.000   0.000  -0.000  -1.346  -0.000   0.000   0.000  -0.000   0.000   0.000  -0.000  -0.000
 -0.000  -0.000   0.000   1.948  -0.000   0.000   0.000  -0.000  -0.810  -0.000  -0.000   0.000  -0.000  -0.000  -0.000   0.000
  0.000  -0.000  -0.000  -0.000   3.045  -0.000   0.000   0.000   0.000  -1.346   0.000  -0.000  -0.000  -0.000  -0.000   0.000
 -0.810   0.000   0.000   0.000  -0.000   0.089  -0.000  -0.000  -0.000  -0.000  -0.000   0.000  -0.000   0.000  -0.000   0.000
  0.000  -0.810  -0.000   0.000   0.000  -0.000   0.089   0.000  -0.000  -0.000   0.000  -0.000  -0.000  -0.000  -0.000   0.000
  0.000  -0.000  -1.346  -0.000   0.000  -0.000   0.000   0.367   0.000   0.000  -0.000   0.000  -0.000  -0.000  -0.000   0.000
  0.000   0.000  -0.000  -0.810   0.000  -0.000  -0.000   0.000   0.089   0.000   0.000   0.000  -0.000   0.000   0.000   0.000
 -0.000   0.000   0.000  -0.000  -1.346  -0.000  -0.000   0.000   0.000   0.367  -0.000   0.000  -0.000   0.000   0.000   0.000
 -0.000  -0.000   0.000  -0.000   0.000  -0.000   0.000  -0.000   0.000  -0.000  -0.329   0.099  -0.000   0.000   0.000  -0.000
  0.000   0.000  -0.000   0.000  -0.000   0.000  -0.000   0.000   0.000   0.000   0.099  -0.017   0.000  -0.000  -0.000  -0.000
  0.000   0.000   0.000  -0.000  -0.000  -0.000  -0.000  -0.000  -0.000  -0.000  -0.000   0.000  -0.036   0.000  -0.000   0.006
 -0.000   0.000   0.000  -0.000  -0.000   0.000  -0.000  -0.000   0.000   0.000   0.000  -0.000   0.000  -0.036  -0.000   0.000
  0.000   0.000  -0.000  -0.000  -0.000  -0.000  -0.000  -0.000   0.000   0.000   0.000  -0.000  -0.000  -0.000  -0.036  -0.000
 -0.000  -0.000  -0.000   0.000   0.000   0.000   0.000   0.000   0.000   0.000  -0.000  -0.000   0.006   0.000  -0.000  -0.001
  0.000  -0.000  -0.000   0.000   0.000  -0.000   0.000   0.000  -0.000  -0.000  -0.000   0.000  -0.000   0.006   0.000   0.000
 -0.000  -0.000   0.000   0.000   0.000   0.000   0.000   0.000  -0.000  -0.000  -0.000  -0.000   0.000   0.000   0.006   0.000


------------------------ aborting loop because EDIFF is reached ----------------------------------------


    CHARGE:  cpu time    0.0690: real time    0.0692
    FORLOC:  cpu time    0.0000: real time    0.0001
    FORNL :  cpu time    0.2580: real time    0.2578
    STRESS:  cpu time    1.3928: real time    1.3919
    FORCOR:  cpu time    0.0030: real time    0.0034
    FORHAR:  cpu time    0.0010: real time    0.0005
    MIXING:  cpu time    0.0000: real time    0.0004
    OFIELD:  cpu time    0.0000: real time    0.0000

  FORCE on cell =-STRESS in cart. coord.  units (eV):
  Direction    XX          YY          ZZ          XY          YZ          ZX
  --------------------------------------------------------------------------------------
  Alpha Z   118.17525   118.17525   118.17525
  Ewald    -390.89368  -390.89368  -390.89368     0.00000     0.00000     0.00000
  Hartree    64.88566    64.88566    64.88566    -0.00000     0.00000    -0.00000
  E(xc)     -79.28810   -79.28810   -79.28810     0.00000    -0.00000     0.00000
  Local     116.30228   116.30228   116.30228     0.00000    -0.00000     0.00000
  n-local   -52.43835   -52.43835   -52.43835     0.00000     0.00000     0.00000
  augment    77.54050    77.54050    77.54050     0.00000    -0.00000     0.00000
  Kinetic   144.93108   144.93108   144.93108    -0.00000    -0.00000    -0.00000
  Fock        0.00000     0.00000     0.00000     0.00000     0.00000     0.00000
  -------------------------------------------------------------------------------------
  Total      -0.78537    -0.78537    -0.78537     0.00000     0.00000     0.00000
  in kB     -53.78821   -53.78821   -53.78822     0.00001     0.00000     0.00002
  external pressure =      -53.79 kB  Pullay stress =        0.00 kB


 VOLUME and BASIS-vectors are now :
 -----------------------------------------------------------------------------
  energy-cutoff  :      500.00
  volume of cell :       23.39
      direct lattice vectors                 reciprocal lattice vectors
     2.860000000  0.000000000  0.000000000     0.349650350  0.000000000  0.000000000
     0.000000000  2.860000000  0.000000000     0.000000000  0.349650350  0.000000000
     0.000000000  0.000000000  2.860000000     0.000000000  0.000000000  0.349650350

  length of vectors
     2.860000000  2.860000000  2.860000000     0.349650350  0.349650350  0.349650350


 FORCES acting on ions
    electron-ion (+dipol)            ewald-force                    non-local-force                 convergence-correction
 -----------------------------------------------------------------------------------------------
   0.365E-07 0.841E-07 -.168E-07   0.219E-14 -.742E-15 -.130E-14   0.615E-07 0.149E-06 0.159E-06   -.137E-06 -.168E-06 -.178E-06
   0.216E-07 -.145E-06 0.648E-07   -.209E-14 0.143E-14 -.194E-15   -.371E-07 -.775E-07 0.298E-07   0.283E-07 0.209E-06 -.671E-07
 -----------------------------------------------------------------------------------------------
   0.581E-07 -.608E-07 0.480E-07   0.102E-15 0.685E-15 -.150E-14   0.244E-07 0.719E-07 0.189E-06   -.109E-06 0.410E-07 -.245E-06
 
 
 POSITION                                       TOTAL-FORCE (eV/Angst)
 -----------------------------------------------------------------------------------
      0.00000      0.00000      0.00000        -0.000000      0.000000     -0.000000
      1.43000      1.43000      1.43000         0.000000     -0.000000      0.000000
 -----------------------------------------------------------------------------------
    total drift:                               -0.000000      0.000000     -0.000000


--------------------------------------------------------------------------------------------------------



  FREE ENERGIE OF THE ION-ELECTRON SYSTEM (eV)
  ---------------------------------------------------
  free  energy   TOTEN  =       -16.46182124 eV

  energy  without entropy=      -16.46062097  energy(sigma->0) =      -16.46142115
 


--------------------------------------------------------------------------------------------------------


    POTLOK:  cpu time    0.0120: real time    0.0113


--------------------------------------------------------------------------------------------------------




--------------------------------------------------------------------------------------------------------


  
 reached required accuracy - stopping structural energy minimisation
     LOOP+:  cpu time  266.8004: real time  267.4137
    4ORBIT:  cpu time    0.0000: real time    0.0000

 total amount of memory used by VASP on root node    85084. kBytes
========================================================================

   base      :      30000. kBytes
   nonl-proj :      43795. kBytes
   fftplans  :         62. kBytes
   grid      :        413. kBytes
   one-center:         62. kBytes
   wavefun   :      10752. kBytes
 
  
  
 General timing and accounting informations for this job:
 ========================================================
  
                  Total CPU time used (sec):      271.349
                            User time (sec):      257.515
                          System time (sec):       13.834
                         Elapsed time (sec):      272.456
  
                   Maximum memory used (kb):      138604.
                   Average memory used (kb):           0.
  
                          Minor page faults:      5166256
                          Major page faults:            0
                 Voluntary context switches:        31700
