<?xml version="1.0" encoding="ISO-8859-1"?>
<modeling>
 <generator>
  <i name="program" type="string">vasp </i>
  <i name="version" type="string">5.4.1  </i>
  <i name="subversion" type="string">24Jun15 (build May 02 2016 14:41:14) complex                          parallel </i>
  <i name="platform" type="string">IFC91_ompi </i>
  <i name="date" type="string">2025 11 12 </i>
  <i name="time" type="string">11:46:53 </i>
 </generator>
 <incar>
  <i type="string" name="SYSTEM"> Fe Bulk</i>
  <i type="int" name="ISTART">     0</i>
  <i type="string" name="PREC">normal   ! precision of the calculation</i>
  <i type="string" name="ALGO"> N        ! Electronic minimisation algo</i>
  <i type="int" name="ISPIN">     2</i>
  <i type="int" name="MAXMIX">    40</i>
  <i type="int" name="NELMIN">     6</i>
  <i type="int" name="IBRION">     2</i>
  <i name="EDIFF">      0.00001000</i>
  <i name="EDIFFG">     -0.01000000</i>
  <i type="int" name="NSW">    20</i>
  <i type="int" name="ISYM">     0</i>
  <i type="int" name="NBLOCK">     1</i>
  <i name="ENCUT">    600.00000000</i>
  <i name="POTIM">      0.50000000</i>
  <i type="int" name="ISMEAR">     1</i>
  <i name="SIGMA">      0.20000000</i>
  <i type="int" name="NWRITE">     2</i>
  <i type="logical" name="LWAVE"> F  </i>
  <i type="logical" name="LCHARG"> F  </i>
  <v type="int" name="KPOINT_BSE">    -1     0     0     0</v>
  <i type="string" name="GGA"> PE       ! Perdew-Burke-Ernzerhof XC (P</i>
 </incar>
 <kpoints>
  <generation param="Monkhorst-Pack">
   <v type="int" name="divisions">      10       10       10 </v>
   <v name="usershift">      0.00000000       0.00000000       0.00000000 </v>
   <v name="genvec1">      0.10000000       0.00000000       0.00000000 </v>
   <v name="genvec2">      0.00000000       0.10000000       0.00000000 </v>
   <v name="genvec3">      0.00000000       0.00000000       0.10000000 </v>
   <v name="shift">      0.50000000       0.50000000       0.50000000 </v>
  </generation>
  <varray name="kpointlist" >
   <v>       0.05000000       0.05000000       0.05000000 </v>
   <v>       0.15000000       0.05000000       0.05000000 </v>
   <v>       0.25000000       0.05000000       0.05000000 </v>
   <v>       0.35000000       0.05000000       0.05000000 </v>
   <v>       0.45000000       0.05000000       0.05000000 </v>
   <v>      -0.45000000       0.05000000       0.05000000 </v>
   <v>      -0.35000000       0.05000000       0.05000000 </v>
   <v>      -0.25000000       0.05000000       0.05000000 </v>
   <v>      -0.15000000       0.05000000       0.05000000 </v>
   <v>      -0.05000000       0.05000000       0.05000000 </v>
   <v>       0.05000000       0.15000000       0.05000000 </v>
   <v>       0.15000000       0.15000000       0.05000000 </v>
   <v>       0.25000000       0.15000000       0.05000000 </v>
   <v>       0.35000000       0.15000000       0.05000000 </v>
   <v>       0.45000000       0.15000000       0.05000000 </v>
   <v>      -0.45000000       0.15000000       0.05000000 </v>
   <v>      -0.35000000       0.15000000       0.05000000 </v>
   <v>      -0.25000000       0.15000000       0.05000000 </v>
   <v>      -0.15000000       0.15000000       0.05000000 </v>
   <v>      -0.05000000       0.15000000       0.05000000 </v>
   <v>       0.05000000       0.25000000       0.05000000 </v>
   <v>       0.15000000       0.25000000       0.05000000 </v>
   <v>       0.25000000       0.25000000       0.05000000 </v>
   <v>       0.35000000       0.25000000       0.05000000 </v>
   <v>       0.45000000       0.25000000       0.05000000 </v>
   <v>      -0.45000000       0.25000000       0.05000000 </v>
   <v>      -0.35000000       0.25000000       0.05000000 </v>
   <v>      -0.25000000       0.25000000       0.05000000 </v>
   <v>      -0.15000000       0.25000000       0.05000000 </v>
   <v>      -0.05000000       0.25000000       0.05000000 </v>
   <v>       0.05000000       0.35000000       0.05000000 </v>
   <v>       0.15000000       0.35000000       0.05000000 </v>
   <v>       0.25000000       0.35000000       0.05000000 </v>
   <v>       0.35000000       0.35000000       0.05000000 </v>
   <v>       0.45000000       0.35000000       0.05000000 </v>
   <v>      -0.45000000       0.35000000       0.05000000 </v>
   <v>      -0.35000000       0.35000000       0.05000000 </v>
   <v>      -0.25000000       0.35000000       0.05000000 </v>
   <v>      -0.15000000       0.35000000       0.05000000 </v>
   <v>      -0.05000000       0.35000000       0.05000000 </v>
   <v>       0.05000000       0.45000000       0.05000000 </v>
   <v>       0.15000000       0.45000000       0.05000000 </v>
   <v>       0.25000000       0.45000000       0.05000000 </v>
   <v>       0.35000000       0.45000000       0.05000000 </v>
   <v>       0.45000000       0.45000000       0.05000000 </v>
   <v>      -0.45000000       0.45000000       0.05000000 </v>
   <v>      -0.35000000       0.45000000       0.05000000 </v>
   <v>      -0.25000000       0.45000000       0.05000000 </v>
   <v>      -0.15000000       0.45000000       0.05000000 </v>
   <v>      -0.05000000       0.45000000       0.05000000 </v>
   <v>       0.05000000      -0.45000000       0.05000000 </v>
   <v>       0.15000000      -0.45000000       0.05000000 </v>
   <v>       0.25000000      -0.45000000       0.05000000 </v>
   <v>       0.35000000      -0.45000000       0.05000000 </v>
   <v>       0.45000000      -0.45000000       0.05000000 </v>
   <v>      -0.45000000      -0.45000000       0.05000000 </v>
   <v>      -0.35000000      -0.45000000       0.05000000 </v>
   <v>      -0.25000000      -0.45000000       0.05000000 </v>
   <v>      -0.15000000      -0.45000000       0.05000000 </v>
   <v>      -0.05000000      -0.45000000       0.05000000 </v>
   <v>       0.05000000      -0.35000000       0.05000000 </v>
   <v>       0.15000000      -0.35000000       0.05000000 </v>
   <v>       0.25000000      -0.35000000       0.05000000 </v>
   <v>       0.35000000      -0.35000000       0.05000000 </v>
   <v>       0.45000000      -0.35000000       0.05000000 </v>
   <v>      -0.45000000      -0.35000000       0.05000000 </v>
   <v>      -0.35000000      -0.35000000       0.05000000 </v>
   <v>      -0.25000000      -0.35000000       0.05000000 </v>
   <v>      -0.15000000      -0.35000000       0.05000000 </v>
   <v>      -0.05000000      -0.35000000       0.05000000 </v>
   <v>       0.05000000      -0.25000000       0.05000000 </v>
   <v>       0.15000000      -0.25000000       0.05000000 </v>
   <v>       0.25000000      -0.25000000       0.05000000 </v>
   <v>       0.35000000      -0.25000000       0.05000000 </v>
   <v>       0.45000000      -0.25000000       0.05000000 </v>
   <v>      -0.45000000      -0.25000000       0.05000000 </v>
   <v>      -0.35000000      -0.25000000       0.05000000 </v>
   <v>      -0.25000000      -0.25000000       0.05000000 </v>
   <v>      -0.15000000      -0.25000000       0.05000000 </v>
   <v>      -0.05000000      -0.25000000       0.05000000 </v>
   <v>       0.05000000      -0.15000000       0.05000000 </v>
   <v>       0.15000000      -0.15000000       0.05000000 </v>
   <v>       0.25000000      -0.15000000       0.05000000 </v>
   <v>       0.35000000      -0.15000000       0.05000000 </v>
   <v>       0.45000000      -0.15000000       0.05000000 </v>
   <v>      -0.45000000      -0.15000000       0.05000000 </v>
   <v>      -0.35000000      -0.15000000       0.05000000 </v>
   <v>      -0.25000000      -0.15000000       0.05000000 </v>
   <v>      -0.15000000      -0.15000000       0.05000000 </v>
   <v>      -0.05000000      -0.15000000       0.05000000 </v>
   <v>       0.05000000      -0.05000000       0.05000000 </v>
   <v>       0.15000000      -0.05000000       0.05000000 </v>
   <v>       0.25000000      -0.05000000       0.05000000 </v>
   <v>       0.35000000      -0.05000000       0.05000000 </v>
   <v>       0.45000000      -0.05000000       0.05000000 </v>
   <v>      -0.45000000      -0.05000000       0.05000000 </v>
   <v>      -0.35000000      -0.05000000       0.05000000 </v>
   <v>      -0.25000000      -0.05000000       0.05000000 </v>
   <v>      -0.15000000      -0.05000000       0.05000000 </v>
   <v>      -0.05000000      -0.05000000       0.05000000 </v>
   <v>       0.05000000       0.05000000       0.15000000 </v>
   <v>       0.15000000       0.05000000       0.15000000 </v>
   <v>       0.25000000       0.05000000       0.15000000 </v>
   <v>       0.35000000       0.05000000       0.15000000 </v>
   <v>       0.45000000       0.05000000       0.15000000 </v>
   <v>      -0.45000000       0.05000000       0.15000000 </v>
   <v>      -0.35000000       0.05000000       0.15000000 </v>
   <v>      -0.25000000       0.05000000       0.15000000 </v>
   <v>      -0.15000000       0.05000000       0.15000000 </v>
   <v>      -0.05000000       0.05000000       0.15000000 </v>
   <v>       0.05000000       0.15000000       0.15000000 </v>
   <v>       0.15000000       0.15000000       0.15000000 </v>
   <v>       0.25000000       0.15000000       0.15000000 </v>
   <v>       0.35000000       0.15000000       0.15000000 </v>
   <v>       0.45000000       0.15000000       0.15000000 </v>
   <v>      -0.45000000       0.15000000       0.15000000 </v>
   <v>      -0.35000000       0.15000000       0.15000000 </v>
   <v>      -0.25000000       0.15000000       0.15000000 </v>
   <v>      -0.15000000       0.15000000       0.15000000 </v>
   <v>      -0.05000000       0.15000000       0.15000000 </v>
   <v>       0.05000000       0.25000000       0.15000000 </v>
   <v>       0.15000000       0.25000000       0.15000000 </v>
   <v>       0.25000000       0.25000000       0.15000000 </v>
   <v>       0.35000000       0.25000000       0.15000000 </v>
   <v>       0.45000000       0.25000000       0.15000000 </v>
   <v>      -0.45000000       0.25000000       0.15000000 </v>
   <v>      -0.35000000       0.25000000       0.15000000 </v>
   <v>      -0.25000000       0.25000000       0.15000000 </v>
   <v>      -0.15000000       0.25000000       0.15000000 </v>
   <v>      -0.05000000       0.25000000       0.15000000 </v>
   <v>       0.05000000       0.35000000       0.15000000 </v>
   <v>       0.15000000       0.35000000       0.15000000 </v>
   <v>       0.25000000       0.35000000       0.15000000 </v>
   <v>       0.35000000       0.35000000       0.15000000 </v>
   <v>       0.45000000       0.35000000       0.15000000 </v>
   <v>      -0.45000000       0.35000000       0.15000000 </v>
   <v>      -0.35000000       0.35000000       0.15000000 </v>
   <v>      -0.25000000       0.35000000       0.15000000 </v>
   <v>      -0.15000000       0.35000000       0.15000000 </v>
   <v>      -0.05000000       0.35000000       0.15000000 </v>
   <v>       0.05000000       0.45000000       0.15000000 </v>
   <v>       0.15000000       0.45000000       0.15000000 </v>
   <v>       0.25000000       0.45000000       0.15000000 </v>
   <v>       0.35000000       0.45000000       0.15000000 </v>
   <v>       0.45000000       0.45000000       0.15000000 </v>
   <v>      -0.45000000       0.45000000       0.15000000 </v>
   <v>      -0.35000000       0.45000000       0.15000000 </v>
   <v>      -0.25000000       0.45000000       0.15000000 </v>
   <v>      -0.15000000       0.45000000       0.15000000 </v>
   <v>      -0.05000000       0.45000000       0.15000000 </v>
   <v>       0.05000000      -0.45000000       0.15000000 </v>
   <v>       0.15000000      -0.45000000       0.15000000 </v>
   <v>       0.25000000      -0.45000000       0.15000000 </v>
   <v>       0.35000000      -0.45000000       0.15000000 </v>
   <v>       0.45000000      -0.45000000       0.15000000 </v>
   <v>      -0.45000000      -0.45000000       0.15000000 </v>
   <v>      -0.35000000      -0.45000000       0.15000000 </v>
   <v>      -0.25000000      -0.45000000       0.15000000 </v>
   <v>      -0.15000000      -0.45000000       0.15000000 </v>
   <v>      -0.05000000      -0.45000000       0.15000000 </v>
   <v>       0.05000000      -0.35000000       0.15000000 </v>
   <v>       0.15000000      -0.35000000       0.15000000 </v>
   <v>       0.25000000      -0.35000000       0.15000000 </v>
   <v>       0.35000000      -0.35000000       0.15000000 </v>
   <v>       0.45000000      -0.35000000       0.15000000 </v>
   <v>      -0.45000000      -0.35000000       0.15000000 </v>
   <v>      -0.35000000      -0.35000000       0.15000000 </v>
   <v>      -0.25000000      -0.35000000       0.15000000 </v>
   <v>      -0.15000000      -0.35000000       0.15000000 </v>
   <v>      -0.05000000      -0.35000000       0.15000000 </v>
   <v>       0.05000000      -0.25000000       0.15000000 </v>
   <v>       0.15000000      -0.25000000       0.15000000 </v>
   <v>       0.25000000      -0.25000000       0.15000000 </v>
   <v>       0.35000000      -0.25000000       0.15000000 </v>
   <v>       0.45000000      -0.25000000       0.15000000 </v>
   <v>      -0.45000000      -0.25000000       0.15000000 </v>
   <v>      -0.35000000      -0.25000000       0.15000000 </v>
   <v>      -0.25000000      -0.25000000       0.15000000 </v>
   <v>      -0.15000000      -0.25000000       0.15000000 </v>
   <v>      -0.05000000      -0.25000000       0.15000000 </v>
   <v>       0.05000000      -0.15000000       0.15000000 </v>
   <v>       0.15000000      -0.15000000       0.15000000 </v>
   <v>       0.25000000      -0.15000000       0.15000000 </v>
   <v>       0.35000000      -0.15000000       0.15000000 </v>
   <v>       0.45000000      -0.15000000       0.15000000 </v>
   <v>      -0.45000000      -0.15000000       0.15000000 </v>
   <v>      -0.35000000      -0.15000000       0.15000000 </v>
   <v>      -0.25000000      -0.15000000       0.15000000 </v>
   <v>      -0.15000000      -0.15000000       0.15000000 </v>
   <v>      -0.05000000      -0.15000000       0.15000000 </v>
   <v>       0.05000000      -0.05000000       0.15000000 </v>
   <v>       0.15000000      -0.05000000       0.15000000 </v>
   <v>       0.25000000      -0.05000000       0.15000000 </v>
   <v>       0.35000000      -0.05000000       0.15000000 </v>
   <v>       0.45000000      -0.05000000       0.15000000 </v>
   <v>      -0.45000000      -0.05000000       0.15000000 </v>
   <v>      -0.35000000      -0.05000000       0.15000000 </v>
   <v>      -0.25000000      -0.05000000       0.15000000 </v>
   <v>      -0.15000000      -0.05000000       0.15000000 </v>
   <v>      -0.05000000      -0.05000000       0.15000000 </v>
   <v>       0.05000000       0.05000000       0.25000000 </v>
   <v>       0.15000000       0.05000000       0.25000000 </v>
   <v>       0.25000000       0.05000000       0.25000000 </v>
   <v>       0.35000000       0.05000000       0.25000000 </v>
   <v>       0.45000000       0.05000000       0.25000000 </v>
   <v>      -0.45000000       0.05000000       0.25000000 </v>
   <v>      -0.35000000       0.05000000       0.25000000 </v>
   <v>      -0.25000000       0.05000000       0.25000000 </v>
   <v>      -0.15000000       0.05000000       0.25000000 </v>
   <v>      -0.05000000       0.05000000       0.25000000 </v>
   <v>       0.05000000       0.15000000       0.25000000 </v>
   <v>       0.15000000       0.15000000       0.25000000 </v>
   <v>       0.25000000       0.15000000       0.25000000 </v>
   <v>       0.35000000       0.15000000       0.25000000 </v>
   <v>       0.45000000       0.15000000       0.25000000 </v>
   <v>      -0.45000000       0.15000000       0.25000000 </v>
   <v>      -0.35000000       0.15000000       0.25000000 </v>
   <v>      -0.25000000       0.15000000       0.25000000 </v>
   <v>      -0.15000000       0.15000000       0.25000000 </v>
   <v>      -0.05000000       0.15000000       0.25000000 </v>
   <v>       0.05000000       0.25000000       0.25000000 </v>
   <v>       0.15000000       0.25000000       0.25000000 </v>
   <v>       0.25000000       0.25000000       0.25000000 </v>
   <v>       0.35000000       0.25000000       0.25000000 </v>
   <v>       0.45000000       0.25000000       0.25000000 </v>
   <v>      -0.45000000       0.25000000       0.25000000 </v>
   <v>      -0.35000000       0.25000000       0.25000000 </v>
   <v>      -0.25000000       0.25000000       0.25000000 </v>
   <v>      -0.15000000       0.25000000       0.25000000 </v>
   <v>      -0.05000000       0.25000000       0.25000000 </v>
   <v>       0.05000000       0.35000000       0.25000000 </v>
   <v>       0.15000000       0.35000000       0.25000000 </v>
   <v>       0.25000000       0.35000000       0.25000000 </v>
   <v>       0.35000000       0.35000000       0.25000000 </v>
   <v>       0.45000000       0.35000000       0.25000000 </v>
   <v>      -0.45000000       0.35000000       0.25000000 </v>
   <v>      -0.35000000       0.35000000       0.25000000 </v>
   <v>      -0.25000000       0.35000000       0.25000000 </v>
   <v>      -0.15000000       0.35000000       0.25000000 </v>
   <v>      -0.05000000       0.35000000       0.25000000 </v>
   <v>       0.05000000       0.45000000       0.25000000 </v>
   <v>       0.15000000       0.45000000       0.25000000 </v>
   <v>       0.25000000       0.45000000       0.25000000 </v>
   <v>       0.35000000       0.45000000       0.25000000 </v>
   <v>       0.45000000       0.45000000       0.25000000 </v>
   <v>      -0.45000000       0.45000000       0.25000000 </v>
   <v>      -0.35000000       0.45000000       0.25000000 </v>
   <v>      -0.25000000       0.45000000       0.25000000 </v>
   <v>      -0.15000000       0.45000000       0.25000000 </v>
   <v>      -0.05000000       0.45000000       0.25000000 </v>
   <v>       0.05000000      -0.45000000       0.25000000 </v>
   <v>       0.15000000      -0.45000000       0.25000000 </v>
   <v>       0.25000000      -0.45000000       0.25000000 </v>
   <v>       0.35000000      -0.45000000       0.25000000 </v>
   <v>       0.45000000      -0.45000000       0.25000000 </v>
   <v>      -0.45000000      -0.45000000       0.25000000 </v>
   <v>      -0.35000000      -0.45000000       0.25000000 </v>
   <v>      -0.25000000      -0.45000000       0.25000000 </v>
   <v>      -0.15000000      -0.45000000       0.25000000 </v>
   <v>      -0.05000000      -0.45000000       0.25000000 </v>
   <v>       0.05000000      -0.35000000       0.25000000 </v>
   <v>       0.15000000      -0.35000000       0.25000000 </v>
   <v>       0.25000000      -0.35000000       0.25000000 </v>
   <v>       0.35000000      -0.35000000       0.25000000 </v>
   <v>       0.45000000      -0.35000000       0.25000000 </v>
   <v>      -0.45000000      -0.35000000       0.25000000 </v>
   <v>      -0.35000000      -0.35000000       0.25000000 </v>
   <v>      -0.25000000      -0.35000000       0.25000000 </v>
   <v>      -0.15000000      -0.35000000       0.25000000 </v>
   <v>      -0.05000000      -0.35000000       0.25000000 </v>
   <v>       0.05000000      -0.25000000       0.25000000 </v>
   <v>       0.15000000      -0.25000000       0.25000000 </v>
   <v>       0.25000000      -0.25000000       0.25000000 </v>
   <v>       0.35000000      -0.25000000       0.25000000 </v>
   <v>       0.45000000      -0.25000000       0.25000000 </v>
   <v>      -0.45000000      -0.25000000       0.25000000 </v>
   <v>      -0.35000000      -0.25000000       0.25000000 </v>
   <v>      -0.25000000      -0.25000000       0.25000000 </v>
   <v>      -0.15000000      -0.25000000       0.25000000 </v>
   <v>      -0.05000000      -0.25000000       0.25000000 </v>
   <v>       0.05000000      -0.15000000       0.25000000 </v>
   <v>       0.15000000      -0.15000000       0.25000000 </v>
   <v>       0.25000000      -0.15000000       0.25000000 </v>
   <v>       0.35000000      -0.15000000       0.25000000 </v>
   <v>       0.45000000      -0.15000000       0.25000000 </v>
   <v>      -0.45000000      -0.15000000       0.25000000 </v>
   <v>      -0.35000000      -0.15000000       0.25000000 </v>
   <v>      -0.25000000      -0.15000000       0.25000000 </v>
   <v>      -0.15000000      -0.15000000       0.25000000 </v>
   <v>      -0.05000000      -0.15000000       0.25000000 </v>
   <v>       0.05000000      -0.05000000       0.25000000 </v>
   <v>       0.15000000      -0.05000000       0.25000000 </v>
   <v>       0.25000000      -0.05000000       0.25000000 </v>
   <v>       0.35000000      -0.05000000       0.25000000 </v>
   <v>       0.45000000      -0.05000000       0.25000000 </v>
   <v>      -0.45000000      -0.05000000       0.25000000 </v>
   <v>      -0.35000000      -0.05000000       0.25000000 </v>
   <v>      -0.25000000      -0.05000000       0.25000000 </v>
   <v>      -0.15000000      -0.05000000       0.25000000 </v>
   <v>      -0.05000000      -0.05000000       0.25000000 </v>
   <v>       0.05000000       0.05000000       0.35000000 </v>
   <v>       0.15000000       0.05000000       0.35000000 </v>
   <v>       0.25000000       0.05000000       0.35000000 </v>
   <v>       0.35000000       0.05000000       0.35000000 </v>
   <v>       0.45000000       0.05000000       0.35000000 </v>
   <v>      -0.45000000       0.05000000       0.35000000 </v>
   <v>      -0.35000000       0.05000000       0.35000000 </v>
   <v>      -0.25000000       0.05000000       0.35000000 </v>
   <v>      -0.15000000       0.05000000       0.35000000 </v>
   <v>      -0.05000000       0.05000000       0.35000000 </v>
   <v>       0.05000000       0.15000000       0.35000000 </v>
   <v>       0.15000000       0.15000000       0.35000000 </v>
   <v>       0.25000000       0.15000000       0.35000000 </v>
   <v>       0.35000000       0.15000000       0.35000000 </v>
   <v>       0.45000000       0.15000000       0.35000000 </v>
   <v>      -0.45000000       0.15000000       0.35000000 </v>
   <v>      -0.35000000       0.15000000       0.35000000 </v>
   <v>      -0.25000000       0.15000000       0.35000000 </v>
   <v>      -0.15000000       0.15000000       0.35000000 </v>
   <v>      -0.05000000       0.15000000       0.35000000 </v>
   <v>       0.05000000       0.25000000       0.35000000 </v>
   <v>       0.15000000       0.25000000       0.35000000 </v>
   <v>       0.25000000       0.25000000       0.35000000 </v>
   <v>       0.35000000       0.25000000       0.35000000 </v>
   <v>       0.45000000       0.25000000       0.35000000 </v>
   <v>      -0.45000000       0.25000000       0.35000000 </v>
   <v>      -0.35000000       0.25000000       0.35000000 </v>
   <v>      -0.25000000       0.25000000       0.35000000 </v>
   <v>      -0.15000000       0.25000000       0.35000000 </v>
   <v>      -0.05000000       0.25000000       0.35000000 </v>
   <v>       0.05000000       0.35000000       0.35000000 </v>
   <v>       0.15000000       0.35000000       0.35000000 </v>
   <v>       0.25000000       0.35000000       0.35000000 </v>
   <v>       0.35000000       0.35000000       0.35000000 </v>
   <v>       0.45000000       0.35000000       0.35000000 </v>
   <v>      -0.45000000       0.35000000       0.35000000 </v>
   <v>      -0.35000000       0.35000000       0.35000000 </v>
   <v>      -0.25000000       0.35000000       0.35000000 </v>
   <v>      -0.15000000       0.35000000       0.35000000 </v>
   <v>      -0.05000000       0.35000000       0.35000000 </v>
   <v>       0.05000000       0.45000000       0.35000000 </v>
   <v>       0.15000000       0.45000000       0.35000000 </v>
   <v>       0.25000000       0.45000000       0.35000000 </v>
   <v>       0.35000000       0.45000000       0.35000000 </v>
   <v>       0.45000000       0.45000000       0.35000000 </v>
   <v>      -0.45000000       0.45000000       0.35000000 </v>
   <v>      -0.35000000       0.45000000       0.35000000 </v>
   <v>      -0.25000000       0.45000000       0.35000000 </v>
   <v>      -0.15000000       0.45000000       0.35000000 </v>
   <v>      -0.05000000       0.45000000       0.35000000 </v>
   <v>       0.05000000      -0.45000000       0.35000000 </v>
   <v>       0.15000000      -0.45000000       0.35000000 </v>
   <v>       0.25000000      -0.45000000       0.35000000 </v>
   <v>       0.35000000      -0.45000000       0.35000000 </v>
   <v>       0.45000000      -0.45000000       0.35000000 </v>
   <v>      -0.45000000      -0.45000000       0.35000000 </v>
   <v>      -0.35000000      -0.45000000       0.35000000 </v>
   <v>      -0.25000000      -0.45000000       0.35000000 </v>
   <v>      -0.15000000      -0.45000000       0.35000000 </v>
   <v>      -0.05000000      -0.45000000       0.35000000 </v>
   <v>       0.05000000      -0.35000000       0.35000000 </v>
   <v>       0.15000000      -0.35000000       0.35000000 </v>
   <v>       0.25000000      -0.35000000       0.35000000 </v>
   <v>       0.35000000      -0.35000000       0.35000000 </v>
   <v>       0.45000000      -0.35000000       0.35000000 </v>
   <v>      -0.45000000      -0.35000000       0.35000000 </v>
   <v>      -0.35000000      -0.35000000       0.35000000 </v>
   <v>      -0.25000000      -0.35000000       0.35000000 </v>
   <v>      -0.15000000      -0.35000000       0.35000000 </v>
   <v>      -0.05000000      -0.35000000       0.35000000 </v>
   <v>       0.05000000      -0.25000000       0.35000000 </v>
   <v>       0.15000000      -0.25000000       0.35000000 </v>
   <v>       0.25000000      -0.25000000       0.35000000 </v>
   <v>       0.35000000      -0.25000000       0.35000000 </v>
   <v>       0.45000000      -0.25000000       0.35000000 </v>
   <v>      -0.45000000      -0.25000000       0.35000000 </v>
   <v>      -0.35000000      -0.25000000       0.35000000 </v>
   <v>      -0.25000000      -0.25000000       0.35000000 </v>
   <v>      -0.15000000      -0.25000000       0.35000000 </v>
   <v>      -0.05000000      -0.25000000       0.35000000 </v>
   <v>       0.05000000      -0.15000000       0.35000000 </v>
   <v>       0.15000000      -0.15000000       0.35000000 </v>
   <v>       0.25000000      -0.15000000       0.35000000 </v>
   <v>       0.35000000      -0.15000000       0.35000000 </v>
   <v>       0.45000000      -0.15000000       0.35000000 </v>
   <v>      -0.45000000      -0.15000000       0.35000000 </v>
   <v>      -0.35000000      -0.15000000       0.35000000 </v>
   <v>      -0.25000000      -0.15000000       0.35000000 </v>
   <v>      -0.15000000      -0.15000000       0.35000000 </v>
   <v>      -0.05000000      -0.15000000       0.35000000 </v>
   <v>       0.05000000      -0.05000000       0.35000000 </v>
   <v>       0.15000000      -0.05000000       0.35000000 </v>
   <v>       0.25000000      -0.05000000       0.35000000 </v>
   <v>       0.35000000      -0.05000000       0.35000000 </v>
   <v>       0.45000000      -0.05000000       0.35000000 </v>
   <v>      -0.45000000      -0.05000000       0.35000000 </v>
   <v>      -0.35000000      -0.05000000       0.35000000 </v>
   <v>      -0.25000000      -0.05000000       0.35000000 </v>
   <v>      -0.15000000      -0.05000000       0.35000000 </v>
   <v>      -0.05000000      -0.05000000       0.35000000 </v>
   <v>       0.05000000       0.05000000       0.45000000 </v>
   <v>       0.15000000       0.05000000       0.45000000 </v>
   <v>       0.25000000       0.05000000       0.45000000 </v>
   <v>       0.35000000       0.05000000       0.45000000 </v>
   <v>       0.45000000       0.05000000       0.45000000 </v>
   <v>      -0.45000000       0.05000000       0.45000000 </v>
   <v>      -0.35000000       0.05000000       0.45000000 </v>
   <v>      -0.25000000       0.05000000       0.45000000 </v>
   <v>      -0.15000000       0.05000000       0.45000000 </v>
   <v>      -0.05000000       0.05000000       0.45000000 </v>
   <v>       0.05000000       0.15000000       0.45000000 </v>
   <v>       0.15000000       0.15000000       0.45000000 </v>
   <v>       0.25000000       0.15000000       0.45000000 </v>
   <v>       0.35000000       0.15000000       0.45000000 </v>
   <v>       0.45000000       0.15000000       0.45000000 </v>
   <v>      -0.45000000       0.15000000       0.45000000 </v>
   <v>      -0.35000000       0.15000000       0.45000000 </v>
   <v>      -0.25000000       0.15000000       0.45000000 </v>
   <v>      -0.15000000       0.15000000       0.45000000 </v>
   <v>      -0.05000000       0.15000000       0.45000000 </v>
   <v>       0.05000000       0.25000000       0.45000000 </v>
   <v>       0.15000000       0.25000000       0.45000000 </v>
   <v>       0.25000000       0.25000000       0.45000000 </v>
   <v>       0.35000000       0.25000000       0.45000000 </v>
   <v>       0.45000000       0.25000000       0.45000000 </v>
   <v>      -0.45000000       0.25000000       0.45000000 </v>
   <v>      -0.35000000       0.25000000       0.45000000 </v>
   <v>      -0.25000000       0.25000000       0.45000000 </v>
   <v>      -0.15000000       0.25000000       0.45000000 </v>
   <v>      -0.05000000       0.25000000       0.45000000 </v>
   <v>       0.05000000       0.35000000       0.45000000 </v>
   <v>       0.15000000       0.35000000       0.45000000 </v>
   <v>       0.25000000       0.35000000       0.45000000 </v>
   <v>       0.35000000       0.35000000       0.45000000 </v>
   <v>       0.45000000       0.35000000       0.45000000 </v>
   <v>      -0.45000000       0.35000000       0.45000000 </v>
   <v>      -0.35000000       0.35000000       0.45000000 </v>
   <v>      -0.25000000       0.35000000       0.45000000 </v>
   <v>      -0.15000000       0.35000000       0.45000000 </v>
   <v>      -0.05000000       0.35000000       0.45000000 </v>
   <v>       0.05000000       0.45000000       0.45000000 </v>
   <v>       0.15000000       0.45000000       0.45000000 </v>
   <v>       0.25000000       0.45000000       0.45000000 </v>
   <v>       0.35000000       0.45000000       0.45000000 </v>
   <v>       0.45000000       0.45000000       0.45000000 </v>
   <v>      -0.45000000       0.45000000       0.45000000 </v>
   <v>      -0.35000000       0.45000000       0.45000000 </v>
   <v>      -0.25000000       0.45000000       0.45000000 </v>
   <v>      -0.15000000       0.45000000       0.45000000 </v>
   <v>      -0.05000000       0.45000000       0.45000000 </v>
   <v>       0.05000000      -0.45000000       0.45000000 </v>
   <v>       0.15000000      -0.45000000       0.45000000 </v>
   <v>       0.25000000      -0.45000000       0.45000000 </v>
   <v>       0.35000000      -0.45000000       0.45000000 </v>
   <v>       0.45000000      -0.45000000       0.45000000 </v>
   <v>      -0.45000000      -0.45000000       0.45000000 </v>
   <v>      -0.35000000      -0.45000000       0.45000000 </v>
   <v>      -0.25000000      -0.45000000       0.45000000 </v>
   <v>      -0.15000000      -0.45000000       0.45000000 </v>
   <v>      -0.05000000      -0.45000000       0.45000000 </v>
   <v>       0.05000000      -0.35000000       0.45000000 </v>
   <v>       0.15000000      -0.35000000       0.45000000 </v>
   <v>       0.25000000      -0.35000000       0.45000000 </v>
   <v>       0.35000000      -0.35000000       0.45000000 </v>
   <v>       0.45000000      -0.35000000       0.45000000 </v>
   <v>      -0.45000000      -0.35000000       0.45000000 </v>
   <v>      -0.35000000      -0.35000000       0.45000000 </v>
   <v>      -0.25000000      -0.35000000       0.45000000 </v>
   <v>      -0.15000000      -0.35000000       0.45000000 </v>
   <v>      -0.05000000      -0.35000000       0.45000000 </v>
   <v>       0.05000000      -0.25000000       0.45000000 </v>
   <v>       0.15000000      -0.25000000       0.45000000 </v>
   <v>       0.25000000      -0.25000000       0.45000000 </v>
   <v>       0.35000000      -0.25000000       0.45000000 </v>
   <v>       0.45000000      -0.25000000       0.45000000 </v>
   <v>      -0.45000000      -0.25000000       0.45000000 </v>
   <v>      -0.35000000      -0.25000000       0.45000000 </v>
   <v>      -0.25000000      -0.25000000       0.45000000 </v>
   <v>      -0.15000000      -0.25000000       0.45000000 </v>
   <v>      -0.05000000      -0.25000000       0.45000000 </v>
   <v>       0.05000000      -0.15000000       0.45000000 </v>
   <v>       0.15000000      -0.15000000       0.45000000 </v>
   <v>       0.25000000      -0.15000000       0.45000000 </v>
   <v>       0.35000000      -0.15000000       0.45000000 </v>
   <v>       0.45000000      -0.15000000       0.45000000 </v>
   <v>      -0.45000000      -0.15000000       0.45000000 </v>
   <v>      -0.35000000      -0.15000000       0.45000000 </v>
   <v>      -0.25000000      -0.15000000       0.45000000 </v>
   <v>      -0.15000000      -0.15000000       0.45000000 </v>
   <v>      -0.05000000      -0.15000000       0.45000000 </v>
   <v>       0.05000000      -0.05000000       0.45000000 </v>
   <v>       0.15000000      -0.05000000       0.45000000 </v>
   <v>       0.25000000      -0.05000000       0.45000000 </v>
   <v>       0.35000000      -0.05000000       0.45000000 </v>
   <v>       0.45000000      -0.05000000       0.45000000 </v>
   <v>      -0.45000000      -0.05000000       0.45000000 </v>
   <v>      -0.35000000      -0.05000000       0.45000000 </v>
   <v>      -0.25000000      -0.05000000       0.45000000 </v>
   <v>      -0.15000000      -0.05000000       0.45000000 </v>
   <v>      -0.05000000      -0.05000000       0.45000000 </v>
  </varray>
  <varray name="weights" >
   <v>       0.00200000 </v>
   <v>       0.00200000 </v>
   <v>       0.00200000 </v>
   <v>       0.00200000 </v>
   <v>       0.00200000 </v>
   <v>       0.00200000 </v>
   <v>       0.00200000 </v>
   <v>       0.00200000 </v>
   <v>       0.00200000 </v>
   <v>       0.00200000 </v>
   <v>       0.00200000 </v>
   <v>       0.00200000 </v>
   <v>       0.00200000 </v>
   <v>       0.00200000 </v>
   <v>       0.00200000 </v>
   <v>       0.00200000 </v>
   <v>       0.00200000 </v>
   <v>       0.00200000 </v>
   <v>       0.00200000 </v>
   <v>       0.00200000 </v>
   <v>       0.00200000 </v>
   <v>       0.00200000 </v>
   <v>       0.00200000 </v>
   <v>       0.00200000 </v>
   <v>       0.00200000 </v>
   <v>       0.00200000 </v>
   <v>       0.00200000 </v>
   <v>       0.00200000 </v>
   <v>       0.00200000 </v>
   <v>       0.00200000 </v>
   <v>       0.00200000 </v>
   <v>       0.00200000 </v>
   <v>       0.00200000 </v>
   <v>       0.00200000 </v>
   <v>       0.00200000 </v>
   <v>       0.00200000 </v>
   <v>       0.00200000 </v>
   <v>       0.00200000 </v>
   <v>       0.00200000 </v>
   <v>       0.00200000 </v>
   <v>       0.00200000 </v>
   <v>       0.00200000 </v>
   <v>       0.00200000 </v>
   <v>       0.00200000 </v>
   <v>       0.00200000 </v>
   <v>       0.00200000 </v>
   <v>       0.00200000 </v>
   <v>       0.00200000 </v>
   <v>       0.00200000 </v>
   <v>       0.00200000 </v>
   <v>       0.00200000 </v>
   <v>       0.00200000 </v>
   <v>       0.00200000 </v>
   <v>       0.00200000 </v>
   <v>       0.00200000 </v>
   <v>       0.00200000 </v>
   <v>       0.00200000 </v>
   <v>       0.00200000 </v>
   <v>       0.00200000 </v>
   <v>       0.00200000 </v>
   <v>       0.00200000 </v>
   <v>       0.00200000 </v>
   <v>       0.00200000 </v>
   <v>       0.00200000 </v>
   <v>       0.00200000 </v>
   <v>       0.00200000 </v>
   <v>       0.00200000 </v>
   <v>       0.00200000 </v>
   <v>       0.00200000 </v>
   <v>       0.00200000 </v>
   <v>       0.00200000 </v>
   <v>       0.00200000 </v>
   <v>       0.00200000 </v>
   <v>       0.00200000 </v>
   <v>       0.00200000 </v>
   <v>       0.00200000 </v>
   <v>       0.00200000 </v>
   <v>       0.00200000 </v>
   <v>       0.00200000 </v>
   <v>       0.00200000 </v>
   <v>       0.00200000 </v>
   <v>       0.00200000 </v>
   <v>       0.00200000 </v>
   <v>       0.00200000 </v>
   <v>       0.00200000 </v>
   <v>       0.00200000 </v>
   <v>       0.00200000 </v>
   <v>       0.00200000 </v>
   <v>       0.00200000 </v>
   <v>       0.00200000 </v>
   <v>       0.00200000 </v>
   <v>       0.00200000 </v>
   <v>       0.00200000 </v>
   <v>       0.00200000 </v>
   <v>       0.00200000 </v>
   <v>       0.00200000 </v>
   <v>       0.00200000 </v>
   <v>       0.00200000 </v>
   <v>       0.00200000 </v>
   <v>       0.00200000 </v>
   <v>       0.00200000 </v>
   <v>       0.00200000 </v>
   <v>       0.00200000 </v>
   <v>       0.00200000 </v>
   <v>       0.00200000 </v>
   <v>       0.00200000 </v>
   <v>       0.00200000 </v>
   <v>       0.00200000 </v>
   <v>       0.00200000 </v>
   <v>       0.00200000 </v>
   <v>       0.00200000 </v>
   <v>       0.00200000 </v>
   <v>       0.00200000 </v>
   <v>       0.00200000 </v>
   <v>       0.00200000 </v>
   <v>       0.00200000 </v>
   <v>       0.00200000 </v>
   <v>       0.00200000 </v>
   <v>       0.00200000 </v>
   <v>       0.00200000 </v>
   <v>       0.00200000 </v>
   <v>       0.00200000 </v>
   <v>       0.00200000 </v>
   <v>       0.00200000 </v>
   <v>       0.00200000 </v>
   <v>       0.00200000 </v>
   <v>       0.00200000 </v>
   <v>       0.00200000 </v>
   <v>       0.00200000 </v>
   <v>       0.00200000 </v>
   <v>       0.00200000 </v>
   <v>       0.00200000 </v>
   <v>       0.00200000 </v>
   <v>       0.00200000 </v>
   <v>       0.00200000 </v>
   <v>       0.00200000 </v>
   <v>       0.00200000 </v>
   <v>       0.00200000 </v>
   <v>       0.00200000 </v>
   <v>       0.00200000 </v>
   <v>       0.00200000 </v>
   <v>       0.00200000 </v>
   <v>       0.00200000 </v>
   <v>       0.00200000 </v>
   <v>       0.00200000 </v>
   <v>       0.00200000 </v>
   <v>       0.00200000 </v>
   <v>       0.00200000 </v>
   <v>       0.00200000 </v>
   <v>       0.00200000 </v>
   <v>       0.00200000 </v>
   <v>       0.00200000 </v>
   <v>       0.00200000 </v>
   <v>       0.00200000 </v>
   <v>       0.00200000 </v>
   <v>       0.00200000 </v>
   <v>       0.00200000 </v>
   <v>       0.00200000 </v>
   <v>       0.00200000 </v>
   <v>       0.00200000 </v>
   <v>       0.00200000 </v>
   <v>       0.00200000 </v>
   <v>       0.00200000 </v>
   <v>       0.00200000 </v>
   <v>       0.00200000 </v>
   <v>       0.00200000 </v>
   <v>       0.00200000 </v>
   <v>       0.00200000 </v>
   <v>       0.00200000 </v>
   <v>       0.00200000 </v>
   <v>       0.00200000 </v>
   <v>       0.00200000 </v>
   <v>       0.00200000 </v>
   <v>       0.00200000 </v>
   <v>       0.00200000 </v>
   <v>       0.00200000 </v>
   <v>       0.00200000 </v>
   <v>       0.00200000 </v>
   <v>       0.00200000 </v>
   <v>       0.00200000 </v>
   <v>       0.00200000 </v>
   <v>       0.00200000 </v>
   <v>       0.00200000 </v>
   <v>       0.00200000 </v>
   <v>       0.00200000 </v>
   <v>       0.00200000 </v>
   <v>       0.00200000 </v>
   <v>       0.00200000 </v>
   <v>       0.00200000 </v>
   <v>       0.00200000 </v>
   <v>       0.00200000 </v>
   <v>       0.00200000 </v>
   <v>       0.00200000 </v>
   <v>       0.00200000 </v>
   <v>       0.00200000 </v>
   <v>       0.00200000 </v>
   <v>       0.00200000 </v>
   <v>       0.00200000 </v>
   <v>       0.00200000 </v>
   <v>       0.00200000 </v>
   <v>       0.00200000 </v>
   <v>       0.00200000 </v>
   <v>       0.00200000 </v>
   <v>       0.00200000 </v>
   <v>       0.00200000 </v>
   <v>       0.00200000 </v>
   <v>       0.00200000 </v>
   <v>       0.00200000 </v>
   <v>       0.00200000 </v>
   <v>       0.00200000 </v>
   <v>       0.00200000 </v>
   <v>       0.00200000 </v>
   <v>       0.00200000 </v>
   <v>       0.00200000 </v>
   <v>       0.00200000 </v>
   <v>       0.00200000 </v>
   <v>       0.00200000 </v>
   <v>       0.00200000 </v>
   <v>       0.00200000 </v>
   <v>       0.00200000 </v>
   <v>       0.00200000 </v>
   <v>       0.00200000 </v>
   <v>       0.00200000 </v>
   <v>       0.00200000 </v>
   <v>       0.00200000 </v>
   <v>       0.00200000 </v>
   <v>       0.00200000 </v>
   <v>       0.00200000 </v>
   <v>       0.00200000 </v>
   <v>       0.00200000 </v>
   <v>       0.00200000 </v>
   <v>       0.00200000 </v>
   <v>       0.00200000 </v>
   <v>       0.00200000 </v>
   <v>       0.00200000 </v>
   <v>       0.00200000 </v>
   <v>       0.00200000 </v>
   <v>       0.00200000 </v>
   <v>       0.00200000 </v>
   <v>       0.00200000 </v>
   <v>       0.00200000 </v>
   <v>       0.00200000 </v>
   <v>       0.00200000 </v>
   <v>       0.00200000 </v>
   <v>       0.00200000 </v>
   <v>       0.00200000 </v>
   <v>       0.00200000 </v>
   <v>       0.00200000 </v>
   <v>       0.00200000 </v>
   <v>       0.00200000 </v>
   <v>       0.00200000 </v>
   <v>       0.00200000 </v>
   <v>       0.00200000 </v>
   <v>       0.00200000 </v>
   <v>       0.00200000 </v>
   <v>       0.00200000 </v>
   <v>       0.00200000 </v>
   <v>       0.00200000 </v>
   <v>       0.00200000 </v>
   <v>       0.00200000 </v>
   <v>       0.00200000 </v>
   <v>       0.00200000 </v>
   <v>       0.00200000 </v>
   <v>       0.00200000 </v>
   <v>       0.00200000 </v>
   <v>       0.00200000 </v>
   <v>       0.00200000 </v>
   <v>       0.00200000 </v>
   <v>       0.00200000 </v>
   <v>       0.00200000 </v>
   <v>       0.00200000 </v>
   <v>       0.00200000 </v>
   <v>       0.00200000 </v>
   <v>       0.00200000 </v>
   <v>       0.00200000 </v>
   <v>       0.00200000 </v>
   <v>       0.00200000 </v>
   <v>       0.00200000 </v>
   <v>       0.00200000 </v>
   <v>       0.00200000 </v>
   <v>       0.00200000 </v>
   <v>       0.00200000 </v>
   <v>       0.00200000 </v>
   <v>       0.00200000 </v>
   <v>       0.00200000 </v>
   <v>       0.00200000 </v>
   <v>       0.00200000 </v>
   <v>       0.00200000 </v>
   <v>       0.00200000 </v>
   <v>       0.00200000 </v>
   <v>       0.00200000 </v>
   <v>       0.00200000 </v>
   <v>       0.00200000 </v>
   <v>       0.00200000 </v>
   <v>       0.00200000 </v>
   <v>       0.00200000 </v>
   <v>       0.00200000 </v>
   <v>       0.00200000 </v>
   <v>       0.00200000 </v>
   <v>       0.00200000 </v>
   <v>       0.00200000 </v>
   <v>       0.00200000 </v>
   <v>       0.00200000 </v>
   <v>       0.00200000 </v>
   <v>       0.00200000 </v>
   <v>       0.00200000 </v>
   <v>       0.00200000 </v>
   <v>       0.00200000 </v>
   <v>       0.00200000 </v>
   <v>       0.00200000 </v>
   <v>       0.00200000 </v>
   <v>       0.00200000 </v>
   <v>       0.00200000 </v>
   <v>       0.00200000 </v>
   <v>       0.00200000 </v>
   <v>       0.00200000 </v>
   <v>       0.00200000 </v>
   <v>       0.00200000 </v>
   <v>       0.00200000 </v>
   <v>       0.00200000 </v>
   <v>       0.00200000 </v>
   <v>       0.00200000 </v>
   <v>       0.00200000 </v>
   <v>       0.00200000 </v>
   <v>       0.00200000 </v>
   <v>       0.00200000 </v>
   <v>       0.00200000 </v>
   <v>       0.00200000 </v>
   <v>       0.00200000 </v>
   <v>       0.00200000 </v>
   <v>       0.00200000 </v>
   <v>       0.00200000 </v>
   <v>       0.00200000 </v>
   <v>       0.00200000 </v>
   <v>       0.00200000 </v>
   <v>       0.00200000 </v>
   <v>       0.00200000 </v>
   <v>       0.00200000 </v>
   <v>       0.00200000 </v>
   <v>       0.00200000 </v>
   <v>       0.00200000 </v>
   <v>       0.00200000 </v>
   <v>       0.00200000 </v>
   <v>       0.00200000 </v>
   <v>       0.00200000 </v>
   <v>       0.00200000 </v>
   <v>       0.00200000 </v>
   <v>       0.00200000 </v>
   <v>       0.00200000 </v>
   <v>       0.00200000 </v>
   <v>       0.00200000 </v>
   <v>       0.00200000 </v>
   <v>       0.00200000 </v>
   <v>       0.00200000 </v>
   <v>       0.00200000 </v>
   <v>       0.00200000 </v>
   <v>       0.00200000 </v>
   <v>       0.00200000 </v>
   <v>       0.00200000 </v>
   <v>       0.00200000 </v>
   <v>       0.00200000 </v>
   <v>       0.00200000 </v>
   <v>       0.00200000 </v>
   <v>       0.00200000 </v>
   <v>       0.00200000 </v>
   <v>       0.00200000 </v>
   <v>       0.00200000 </v>
   <v>       0.00200000 </v>
   <v>       0.00200000 </v>
   <v>       0.00200000 </v>
   <v>       0.00200000 </v>
   <v>       0.00200000 </v>
   <v>       0.00200000 </v>
   <v>       0.00200000 </v>
   <v>       0.00200000 </v>
   <v>       0.00200000 </v>
   <v>       0.00200000 </v>
   <v>       0.00200000 </v>
   <v>       0.00200000 </v>
   <v>       0.00200000 </v>
   <v>       0.00200000 </v>
   <v>       0.00200000 </v>
   <v>       0.00200000 </v>
   <v>       0.00200000 </v>
   <v>       0.00200000 </v>
   <v>       0.00200000 </v>
   <v>       0.00200000 </v>
   <v>       0.00200000 </v>
   <v>       0.00200000 </v>
   <v>       0.00200000 </v>
   <v>       0.00200000 </v>
   <v>       0.00200000 </v>
   <v>       0.00200000 </v>
   <v>       0.00200000 </v>
   <v>       0.00200000 </v>
   <v>       0.00200000 </v>
   <v>       0.00200000 </v>
   <v>       0.00200000 </v>
   <v>       0.00200000 </v>
   <v>       0.00200000 </v>
   <v>       0.00200000 </v>
   <v>       0.00200000 </v>
   <v>       0.00200000 </v>
   <v>       0.00200000 </v>
   <v>       0.00200000 </v>
   <v>       0.00200000 </v>
   <v>       0.00200000 </v>
   <v>       0.00200000 </v>
   <v>       0.00200000 </v>
   <v>       0.00200000 </v>
   <v>       0.00200000 </v>
   <v>       0.00200000 </v>
   <v>       0.00200000 </v>
   <v>       0.00200000 </v>
   <v>       0.00200000 </v>
   <v>       0.00200000 </v>
   <v>       0.00200000 </v>
   <v>       0.00200000 </v>
   <v>       0.00200000 </v>
   <v>       0.00200000 </v>
   <v>       0.00200000 </v>
   <v>       0.00200000 </v>
   <v>       0.00200000 </v>
   <v>       0.00200000 </v>
   <v>       0.00200000 </v>
   <v>       0.00200000 </v>
   <v>       0.00200000 </v>
   <v>       0.00200000 </v>
   <v>       0.00200000 </v>
   <v>       0.00200000 </v>
   <v>       0.00200000 </v>
   <v>       0.00200000 </v>
   <v>       0.00200000 </v>
   <v>       0.00200000 </v>
   <v>       0.00200000 </v>
   <v>       0.00200000 </v>
   <v>       0.00200000 </v>
   <v>       0.00200000 </v>
   <v>       0.00200000 </v>
   <v>       0.00200000 </v>
   <v>       0.00200000 </v>
   <v>       0.00200000 </v>
   <v>       0.00200000 </v>
   <v>       0.00200000 </v>
   <v>       0.00200000 </v>
   <v>       0.00200000 </v>
   <v>       0.00200000 </v>
   <v>       0.00200000 </v>
   <v>       0.00200000 </v>
   <v>       0.00200000 </v>
   <v>       0.00200000 </v>
   <v>       0.00200000 </v>
   <v>       0.00200000 </v>
   <v>       0.00200000 </v>
   <v>       0.00200000 </v>
   <v>       0.00200000 </v>
   <v>       0.00200000 </v>
   <v>       0.00200000 </v>
   <v>       0.00200000 </v>
   <v>       0.00200000 </v>
   <v>       0.00200000 </v>
   <v>       0.00200000 </v>
   <v>       0.00200000 </v>
   <v>       0.00200000 </v>
   <v>       0.00200000 </v>
   <v>       0.00200000 </v>
   <v>       0.00200000 </v>
   <v>       0.00200000 </v>
   <v>       0.00200000 </v>
   <v>       0.00200000 </v>
   <v>       0.00200000 </v>
   <v>       0.00200000 </v>
   <v>       0.00200000 </v>
   <v>       0.00200000 </v>
   <v>       0.00200000 </v>
   <v>       0.00200000 </v>
   <v>       0.00200000 </v>
   <v>       0.00200000 </v>
   <v>       0.00200000 </v>
   <v>       0.00200000 </v>
   <v>       0.00200000 </v>
   <v>       0.00200000 </v>
   <v>       0.00200000 </v>
   <v>       0.00200000 </v>
   <v>       0.00200000 </v>
   <v>       0.00200000 </v>
   <v>       0.00200000 </v>
   <v>       0.00200000 </v>
   <v>       0.00200000 </v>
   <v>       0.00200000 </v>
   <v>       0.00200000 </v>
   <v>       0.00200000 </v>
   <v>       0.00200000 </v>
   <v>       0.00200000 </v>
   <v>       0.00200000 </v>
   <v>       0.00200000 </v>
   <v>       0.00200000 </v>
   <v>       0.00200000 </v>
   <v>       0.00200000 </v>
   <v>       0.00200000 </v>
  </varray>
 </kpoints>
 <parameters>
  <separator name="general" >
   <i type="string" name="SYSTEM">Fe Bulk</i>
   <i type="logical" name="LCOMPAT"> F  </i>
  </separator>
  <separator name="electronic" >
   <i type="string" name="PREC">normal</i>
   <i name="ENMAX">    600.00000000</i>
   <i name="ENAUG">    511.36800000</i>
   <i name="EDIFF">      0.00001000</i>
   <i type="int" name="IALGO">    38</i>
   <i type="int" name="IWAVPR">    11</i>
   <i type="int" name="NBANDS">    32</i>
   <i name="NELECT">     16.00000000</i>
   <i type="int" name="TURBO">     0</i>
   <i type="int" name="IRESTART">     0</i>
   <i type="int" name="NREBOOT">     0</i>
   <i type="int" name="NMIN">     0</i>
   <i name="EREF">      0.00000000</i>
   <separator name="electronic smearing" >
    <i type="int" name="ISMEAR">     1</i>
    <i name="SIGMA">      0.20000000</i>
    <i name="KSPACING">      0.50000000</i>
    <i type="logical" name="KGAMMA"> T  </i>
   </separator>
   <separator name="electronic projectors" >
    <i type="logical" name="LREAL"> F  </i>
    <v name="ROPT">      0.00000000</v>
    <i type="int" name="LMAXPAW">  -100</i>
    <i type="int" name="LMAXMIX">     2</i>
    <i type="logical" name="NLSPLINE"> F  </i>
   </separator>
   <separator name="electronic startup" >
    <i type="int" name="ISTART">     0</i>
    <i type="int" name="ICHARG">     2</i>
    <i type="int" name="INIWAV">     1</i>
   </separator>
   <separator name="electronic spin" >
    <i type="int" name="ISPIN">     2</i>
    <i type="logical" name="LNONCOLLINEAR"> F  </i>
    <v name="MAGMOM">      1.00000000      1.00000000</v>
    <i name="NUPDOWN">     -1.00000000</i>
    <i type="logical" name="LSORBIT"> F  </i>
    <v name="SAXIS">      0.00000000      0.00000000      1.00000000</v>
    <i type="logical" name="LSPIRAL"> F  </i>
    <v name="QSPIRAL">      0.00000000      0.00000000      0.00000000</v>
    <i type="logical" name="LZEROZ"> F  </i>
   </separator>
   <separator name="electronic exchange-correlation" >
    <i type="logical" name="LASPH"> F  </i>
    <i type="logical" name="LMETAGGA"> F  </i>
   </separator>
   <separator name="electronic convergence" >
    <i type="int" name="NELM">    60</i>
    <i type="int" name="NELMDL">    -5</i>
    <i type="int" name="NELMIN">     6</i>
    <i name="ENINI">    600.00000000</i>
    <separator name="electronic convergence detail" >
     <i type="logical" name="LDIAG"> T  </i>
     <i type="logical" name="LSUBROT"> F  </i>
     <i name="WEIMIN">      0.00100000</i>
     <i name="EBREAK">      0.00000008</i>
     <i name="DEPER">      0.30000000</i>
     <i type="int" name="NRMM">     4</i>
     <i name="TIME">      0.40000000</i>
    </separator>
   </separator>
   <separator name="electronic mixer" >
    <i name="AMIX">      0.40000000</i>
    <i name="BMIX">      1.00000000</i>
    <i name="AMIN">      0.10000000</i>
    <i name="AMIX_MAG">      1.60000000</i>
    <i name="BMIX_MAG">      1.00000000</i>
    <separator name="electronic mixer details" >
     <i type="int" name="IMIX">     4</i>
     <i type="logical" name="MIXFIRST"> F  </i>
     <i type="int" name="MAXMIX">    40</i>
     <i name="WC">    100.00000000</i>
     <i type="int" name="INIMIX">     1</i>
     <i type="int" name="MIXPRE">     1</i>
     <i type="int" name="MREMOVE">     5</i>
    </separator>
   </separator>
   <separator name="electronic dipolcorrection" >
    <i type="logical" name="LDIPOL"> F  </i>
    <i type="logical" name="LMONO"> F  </i>
    <i type="int" name="IDIPOL">     0</i>
    <i name="EPSILON">      1.00000000</i>
    <v name="DIPOL">   -100.00000000   -100.00000000   -100.00000000</v>
    <i name="EFIELD">      0.00000000</i>
   </separator>
  </separator>
  <separator name="grids" >
   <i type="int" name="NGX">    18</i>
   <i type="int" name="NGY">    18</i>
   <i type="int" name="NGZ">    18</i>
   <i type="int" name="NGXF">    36</i>
   <i type="int" name="NGYF">    36</i>
   <i type="int" name="NGZF">    36</i>
   <i type="logical" name="ADDGRID"> F  </i>
  </separator>
  <separator name="ionic" >
   <i type="int" name="NSW">    20</i>
   <i type="int" name="IBRION">     2</i>
   <i type="int" name="ISIF">     2</i>
   <i name="PSTRESS">      0.00000000</i>
   <i name="EDIFFG">     -0.01000000</i>
   <i type="int" name="NFREE">     1</i>
   <i name="POTIM">      0.50000000</i>
   <i name="SMASS">     -3.00000000</i>
   <i name="SCALEE">      1.00000000</i>
  </separator>
  <separator name="ionic md" >
   <i name="TEBEG">      0.00010000</i>
   <i name="TEEND">      0.00010000</i>
   <i type="int" name="NBLOCK">     1</i>
   <i type="int" name="KBLOCK">    20</i>
   <i type="int" name="NPACO">   256</i>
   <i name="APACO">     16.00000000</i>
  </separator>
  <separator name="symmetry" >
   <i type="int" name="ISYM">     0</i>
   <i name="SYMPREC">      0.00001000</i>
  </separator>
  <separator name="dos" >
   <i type="logical" name="LORBIT"> F  </i>
   <v name="RWIGS">     -1.00000000</v>
   <i type="int" name="NEDOS">   301</i>
   <i name="EMIN">     10.00000000</i>
   <i name="EMAX">    -10.00000000</i>
   <i name="EFERMI">      0.00000000</i>
  </separator>
  <separator name="writing" >
   <i type="int" name="NWRITE">     2</i>
   <i type="logical" name="LWAVE"> F  </i>
   <i type="logical" name="LCHARG"> F  </i>
   <i type="logical" name="LPARD"> F  </i>
   <i type="logical" name="LVTOT"> F  </i>
   <i type="logical" name="LVHAR"> F  </i>
   <i type="logical" name="LELF"> F  </i>
   <i type="logical" name="LOPTICS"> F  </i>
   <v name="STM">      0.00000000      0.00000000      0.00000000      0.00000000      0.00000000      0.00000000      0.00000000</v>
  </separator>
  <separator name="performance" >
   <i type="int" name="NPAR">    32</i>
   <i type="int" name="NSIM">     4</i>
   <i type="int" name="NBLK">    -1</i>
   <i type="logical" name="LPLANE"> T  </i>
   <i type="logical" name="LSCALAPACK"> T  </i>
   <i type="logical" name="LSCAAWARE"> T  </i>
   <i type="logical" name="LSCALU"> F  </i>
   <i type="logical" name="LASYNC"> F  </i>
   <i type="logical" name="LORBITALREAL"> F  </i>
  </separator>
  <separator name="miscellaneous" >
   <i type="int" name="IDIOT">     3</i>
   <i type="logical" name="LMUSIC"> F  </i>
   <v name="POMASS">     55.84700000</v>
   <v name="DARWINR">      0.00000000</v>
   <v name="DARWINV">      1.00000000</v>
   <i type="logical" name="LCORR"> T  </i>
  </separator>
  <i type="logical" name="GGA_COMPAT"> T  </i>
  <i type="logical" name="LBERRY"> F  </i>
  <i type="int" name="ICORELEVEL">     0</i>
  <i type="logical" name="LDAU"> F  </i>
  <i type="int" name="I_CONSTRAINED_M">     0</i>
  <separator name="electronic exchange-correlation" >
   <i type="string" name="GGA">PE</i>
   <i type="int" name="VOSKOWN">     0</i>
   <i type="logical" name="LHFCALC"> F  </i>
   <i type="string" name="PRECFOCK"></i>
   <i type="logical" name="LSYMGRAD"> F  </i>
   <i type="logical" name="LHFONE"> F  </i>
   <i type="logical" name="LRHFCALC"> F  </i>
   <i type="logical" name="LTHOMAS"> F  </i>
   <i type="logical" name="LMODELHF"> F  </i>
   <i name="ENCUT4O">     -1.00000000</i>
   <i type="int" name="EXXOEP">     0</i>
   <i type="int" name="FOURORBIT">     0</i>
   <i name="AEXX">      0.00000000</i>
   <i name="HFALPHA">      0.00000000</i>
   <i name="MCALPHA">      0.00000000</i>
   <i name="ALDAX">      1.00000000</i>
   <i name="AGGAX">      1.00000000</i>
   <i name="ALDAC">      1.00000000</i>
   <i name="AGGAC">      1.00000000</i>
   <i type="int" name="NKREDX">     1</i>
   <i type="int" name="NKREDY">     1</i>
   <i type="int" name="NKREDZ">     1</i>
   <i type="logical" name="SHIFTRED"> F  </i>
   <i type="logical" name="ODDONLY"> F  </i>
   <i type="logical" name="EVENONLY"> F  </i>
   <i type="int" name="LMAXFOCK">     0</i>
   <i type="int" name="NMAXFOCKAE">     0</i>
   <i type="logical" name="LFOCKAEDFT"> F  </i>
   <i name="HFSCREEN">      0.00000000</i>
   <i name="HFSCREENC">      0.00000000</i>
   <i type="int" name="NBANDSGWLOW">     0</i>
  </separator>
  <separator name="vdW DFT" >
   <i type="logical" name="LUSE_VDW"> F  </i>
   <i name="Zab_VDW">     -0.84910000</i>
   <i name="PARAM1">      0.12340000</i>
   <i name="PARAM2">      1.00000000</i>
   <i name="PARAM3">      0.00000000</i>
  </separator>
  <separator name="model GW" >
   <i type="int" name="MODEL_GW">     0</i>
   <i name="MODEL_EPS0">      7.01809680</i>
   <i name="MODEL_ALPHA">      1.00000000</i>
  </separator>
  <separator name="linear response parameters" >
   <i type="logical" name="LEPSILON"> F  </i>
   <i type="logical" name="LRPA"> F  </i>
   <i type="logical" name="LNABLA"> F  </i>
   <i type="logical" name="LVEL"> F  </i>
   <i type="int" name="KINTER">     0</i>
   <i name="CSHIFT">      0.10000000</i>
   <i name="OMEGAMAX">     -1.00000000</i>
   <i name="DEG_THRESHOLD">      0.00200000</i>
  </separator>
  <separator name="orbital magnetization" >
   <i type="logical" name="NUCIND"> F  </i>
   <v name="MAGPOS">      0.00000000      0.00000000      0.00000000</v>
   <i type="logical" name="LNICSALL"> T  </i>
   <i type="logical" name="ORBITALMAG"> F  </i>
   <i type="logical" name="LMAGBLOCH"> F  </i>
   <i type="logical" name="LCHIMAG"> F  </i>
   <i type="logical" name="LGAUGE"> T  </i>
   <i type="int" name="MAGATOM">     0</i>
   <v name="MAGDIPOL">      0.00000000      0.00000000      0.00000000</v>
   <v name="AVECCONST">      0.00000000      0.00000000      0.00000000</v>
  </separator>
  <separator name="response functions" >
   <i type="logical" name="LADDER"> F  </i>
   <i type="logical" name="LFXC"> F  </i>
   <i type="logical" name="LHARTREE"> T  </i>
   <i type="int" name="IBSE">     0</i>
   <v type="int" name="KPOINT">    -1     0     0     0</v>
   <i type="logical" name="LTCTE"> F  </i>
   <i type="logical" name="LTETE"> F  </i>
   <i type="logical" name="LTRIPLET"> F  </i>
   <i type="logical" name="LFXCEPS"> F  </i>
   <i type="logical" name="LFXHEG"> F  </i>
   <i type="int" name="NATURALO">     0</i>
   <i type="logical" name="L2ORDER"> F  </i>
   <i type="logical" name="LUSEW"> F  </i>
   <i name="ENCUTGW">     -2.00000000</i>
   <i name="ENCUTGWSOFT">     -2.00000000</i>
   <i name="ENCUTLF">     -1.00000000</i>
   <i type="int" name="LMAXMP2">    -1</i>
   <i name="SCISSOR">      0.00000000</i>
   <i type="int" name="NOMEGA">     0</i>
   <i type="int" name="NOMEGAR">     0</i>
   <i type="int" name="NBANDSGW">    -1</i>
   <i type="int" name="NBANDSO">    -1</i>
   <i type="int" name="NBANDSV">    -1</i>
   <i type="int" name="NELM">     1</i>
   <i type="int" name="NELMHF">     1</i>
   <i type="int" name="DIM">     3</i>
   <i type="int" name="ANTIRES">     0</i>
   <i name="OMEGAMAX">    -30.00000000</i>
   <i name="OMEGAMIN">    -30.00000000</i>
   <i name="OMEGATL">   -200.00000000</i>
   <i type="int" name="OMEGAGRID">     0</i>
   <i name="CSHIFT">     -0.10000000</i>
   <i type="logical" name="SELFENERGY"> F  </i>
   <i type="logical" name="LSPECTRAL"> F  </i>
   <i type="logical" name="LSPECTRALGW"> F  </i>
   <i type="logical" name="LSINGLES"> F  </i>
   <i type="logical" name="LFERMIGW"> F  </i>
   <i type="logical" name="ODDONLYGW"> F  </i>
   <i type="logical" name="EVENONLYGW"> F  </i>
   <i type="int" name="NKREDLFX">     1</i>
   <i type="int" name="NKREDLFY">     1</i>
   <i type="int" name="NKREDLFZ">     1</i>
   <i type="int" name="MAXMEM">  1800</i>
   <i type="int" name="TELESCOPE">     0</i>
   <i type="int" name="TAUPAR">     1</i>
   <i type="int" name="OMEGAPAR">    -1</i>
   <i name="LAMBDA">      1.00000000</i>
  </separator>
  <separator name="External order field" >
   <i name="OFIELD_KAPPA">      0.00000000</i>
   <v name="OFIELD_K">      0.00000000      0.00000000      0.00000000</v>
   <i name="OFIELD_Q6_NEAR">      0.00000000</i>
   <i name="OFIELD_Q6_FAR">      0.00000000</i>
   <i name="OFIELD_A">      0.00000000</i>
  </separator>
 </parameters>
 <atominfo>
  <atoms>       2 </atoms>
  <types>       1 </types>
  <array name="atoms" >
   <dimension dim="1">ion</dimension>
   <field type="string">element</field>
   <field type="int">atomtype</field>
   <set>
    <rc><c>Fe</c><c>   1</c></rc>
    <rc><c>Fe</c><c>   1</c></rc>
   </set>
  </array>
  <array name="atomtypes" >
   <dimension dim="1">type</dimension>
   <field type="int">atomspertype</field>
   <field type="string">element</field>
   <field>mass</field>
   <field>valence</field>
   <field type="string">pseudopotential</field>
   <set>
    <rc><c>   2</c><c>Fe</c><c>     55.84700000</c><c>      8.00000000</c><c>  PAW_PBE Fe 06Sep2000                  </c></rc>
   </set>
  </array>
 </atominfo>
 <structure name="initialpos" >
  <crystal>
   <varray name="basis" >
    <v>       2.86000000       0.00000000       0.00000000 </v>
    <v>       0.00000000       2.86000000       0.00000000 </v>
    <v>       0.00000000       0.00000000       2.86000000 </v>
   </varray>
   <i name="volume">     23.39365600 </i>
   <varray name="rec_basis" >
    <v>       0.34965035       0.00000000       0.00000000 </v>
    <v>       0.00000000       0.34965035       0.00000000 </v>
    <v>       0.00000000       0.00000000       0.34965035 </v>
   </varray>
  </crystal>
  <varray name="positions" >
   <v>       0.00000000       0.00000000       0.00000000 </v>
   <v>       0.50000000       0.50000000       0.50000000 </v>
  </varray>
 </structure>
 <calculation>
  <scstep>
   <time name="dav">   12.86   12.88</time>
   <time name="total">   12.90   12.94</time>
   <energy>
    <i name="alphaZ">    118.17524546 </i>
    <i name="ewald">  -1172.68111701 </i>
    <i name="hartreedc">   -227.55063011 </i>
    <i name="XCdc">      7.90836475 </i>
    <i name="pawpsdc">   1109.45345578 </i>
    <i name="pawaedc">  -1124.86183816 </i>
    <i name="eentropy">     -0.00120648 </i>
    <i name="bandstr">    102.37120015 </i>
    <i name="atom">   1188.62725594 </i>
    <i name="e_fr_energy">      1.44073031 </i>
    <i name="e_wo_entrp">      1.44193679 </i>
    <i name="e_0_energy">      1.44113247 </i>
   </energy>
  </scstep>
  <scstep>
   <time name="dav">   21.57   21.57</time>
   <time name="total">   21.58   21.59</time>
   <energy>
    <i name="e_fr_energy">    -18.46054736 </i>
    <i name="e_wo_entrp">    -18.44847318 </i>
    <i name="e_0_energy">    -18.45652263 </i>
   </energy>
  </scstep>
  <scstep>
   <time name="dav">   15.13   15.15</time>
   <time name="total">   15.14   15.17</time>
   <energy>
    <i name="e_fr_energy">    -18.48444771 </i>
    <i name="e_wo_entrp">    -18.47228900 </i>
    <i name="e_0_energy">    -18.48039481 </i>
   </energy>
  </scstep>
  <scstep>
   <time name="dav">   34.10   34.18</time>
   <time name="total">   34.11   34.20</time>
   <energy>
    <i name="e_fr_energy">    -18.48446823 </i>
    <i name="e_wo_entrp">    -18.47230926 </i>
    <i name="e_0_energy">    -18.48041524 </i>
   </energy>
  </scstep>
  <scstep>
   <time name="dav">   15.80   15.81</time>
   <time name="total">   15.91   15.94</time>
   <energy>
    <i name="e_fr_energy">    -18.48446823 </i>
    <i name="e_wo_entrp">    -18.47230926 </i>
    <i name="e_0_energy">    -18.48041524 </i>
   </energy>
  </scstep>
  <scstep>
   <time name="dav">   22.60   22.60</time>
   <time name="total">   22.71   22.73</time>
   <energy>
    <i name="e_fr_energy">    -16.44473388 </i>
    <i name="e_wo_entrp">    -16.44990380 </i>
    <i name="e_0_energy">    -16.44645719 </i>
   </energy>
  </scstep>
  <scstep>
   <time name="dav">   17.29   17.29</time>
   <time name="total">   17.40   17.42</time>
   <energy>
    <i name="e_fr_energy">    -16.41923735 </i>
    <i name="e_wo_entrp">    -16.41667513 </i>
    <i name="e_0_energy">    -16.41838327 </i>
   </energy>
  </scstep>
  <scstep>
   <time name="dav">   26.83   26.83</time>
   <time name="total">   26.95   26.96</time>
   <energy>
    <i name="e_fr_energy">    -16.47002211 </i>
    <i name="e_wo_entrp">    -16.46868496 </i>
    <i name="e_0_energy">    -16.46957640 </i>
   </energy>
  </scstep>
  <scstep>
   <time name="dav">   25.05   25.06</time>
   <time name="total">   25.18   25.21</time>
   <energy>
    <i name="e_fr_energy">    -16.45934073 </i>
    <i name="e_wo_entrp">    -16.45917161 </i>
    <i name="e_0_energy">    -16.45928435 </i>
   </energy>
  </scstep>
  <scstep>
   <time name="dav">   23.74   23.77</time>
   <time name="total">   23.86   23.91</time>
   <energy>
    <i name="e_fr_energy">    -16.45589050 </i>
    <i name="e_wo_entrp">    -16.45423085 </i>
    <i name="e_0_energy">    -16.45533728 </i>
   </energy>
  </scstep>
  <scstep>
   <time name="dav">   23.28   23.28</time>
   <time name="total">   23.40   23.44</time>
   <energy>
    <i name="e_fr_energy">    -16.46089058 </i>
    <i name="e_wo_entrp">    -16.45976122 </i>
    <i name="e_0_energy">    -16.46051412 </i>
   </energy>
  </scstep>
  <scstep>
   <time name="dav">   18.87   18.88</time>
   <time name="total">   19.01   19.03</time>
   <energy>
    <i name="e_fr_energy">    -16.46093954 </i>
    <i name="e_wo_entrp">    -16.45974549 </i>
    <i name="e_0_energy">    -16.46054153 </i>
   </energy>
  </scstep>
  <scstep>
   <time name="dav">   13.81   13.81</time>
   <time name="total">   13.83   13.84</time>
   <energy>
    <i name="alphaZ">    118.17524546 </i>
    <i name="ewald">  -1172.68111701 </i>
    <i name="hartreedc">   -194.65971146 </i>
    <i name="XCdc">      8.55001628 </i>
    <i name="pawpsdc">   1414.54801842 </i>
    <i name="pawaedc">  -1432.51015305 </i>
    <i name="eentropy">     -0.00119918 </i>
    <i name="bandstr">     53.49071034 </i>
    <i name="atom">   1188.62725594 </i>
    <i name="e_fr_energy">    -16.46093427 </i>
    <i name="e_wo_entrp">    -16.45973509 </i>
    <i name="e_0_energy">    -16.46053454 </i>
   </energy>
  </scstep>
  <structure>
   <crystal>
    <varray name="basis" >
     <v>       2.86000000       0.00000000       0.00000000 </v>
     <v>       0.00000000       2.86000000       0.00000000 </v>
     <v>       0.00000000       0.00000000       2.86000000 </v>
    </varray>
    <i name="volume">     23.39365600 </i>
    <varray name="rec_basis" >
     <v>       0.34965035       0.00000000       0.00000000 </v>
     <v>       0.00000000       0.34965035       0.00000000 </v>
     <v>       0.00000000       0.00000000       0.34965035 </v>
    </varray>
   </crystal>
   <varray name="positions" >
    <v>       0.00000000       0.00000000       0.00000000 </v>
    <v>       0.50000000       0.50000000       0.50000000 </v>
   </varray>
  </structure>
  <varray name="forces" >
   <v>       0.00000001       0.00000001       0.00000002 </v>
   <v>      -0.00000001      -0.00000001      -0.00000002 </v>
  </varray>
  <varray name="stress" >
   <v>     -54.27757096       0.00001399      -0.00001599 </v>
   <v>       0.00001411     -54.27745664       0.00001187 </v>
   <v>      -0.00001585       0.00001241     -54.27755095 </v>
  </varray>
  <energy>
   <i name="e_fr_energy">    -16.46093427 </i>
   <i name="e_wo_entrp">    -16.46053454 </i>
   <i name="e_0_energy">     -0.00119918 </i>
  </energy>
  <time name="totalsc">  274.33  274.73</time>
  <eigenvalues>
   <array>
    <dimension dim="1">band</dimension>
    <dimension dim="2">kpoint</dimension>
    <dimension dim="3">spin</dimension>
    <field>eigene</field>
    <field>occ</field>
    <set>
     <set comment="spin 1">
      <set comment="kpoint 1">
       <r>   -2.5819    1.0000 </r>
       <r>    0.9255    1.0000 </r>
       <r>    0.9255    1.0000 </r>
       <r>    3.2266    1.0000 </r>
       <r>    3.2266    1.0000 </r>
       <r>    3.3485    1.0000 </r>
       <r>    4.4366    1.0000 </r>
       <r>    4.4366    1.0000 </r>
       <r>    5.3437    0.9680 </r>
       <r>    5.5277    0.3376 </r>
       <r>    5.5277    0.3376 </r>
       <r>   14.9685    0.0000 </r>
       <r>   14.9685    0.0000 </r>
       <r>   15.2157    0.0000 </r>
       <r>   21.3922    0.0000 </r>
       <r>   21.3922    0.0000 </r>
       <r>   26.1124    0.0000 </r>
       <r>   29.4833    0.0000 </r>
       <r>   29.4833    0.0000 </r>
       <r>   30.4025    0.0000 </r>
       <r>   34.6648    0.0000 </r>
       <r>   35.0838    0.0000 </r>
       <r>   35.0838    0.0000 </r>
       <r>   36.7599    0.0000 </r>
       <r>   36.7599    0.0000 </r>
       <r>   39.4812    0.0000 </r>
       <r>   39.4812    0.0000 </r>
       <r>   39.7994    0.0000 </r>
       <r>   43.8742    0.0000 </r>
       <r>   49.6404    0.0000 </r>
       <r>   51.0946    0.0000 </r>
       <r>   51.0946    0.0000 </r>
      </set>
      <set comment="kpoint 2">
       <r>   -2.1851    1.0000 </r>
       <r>    1.0890    1.0000 </r>
       <r>    1.0899    1.0000 </r>
       <r>    3.1708    1.0000 </r>
       <r>    3.2175    1.0000 </r>
       <r>    3.5121    1.0000 </r>
       <r>    4.2784    1.0000 </r>
       <r>    4.5085    1.0000 </r>
       <r>    4.9693    1.0007 </r>
       <r>    5.2268    1.0345 </r>
       <r>    5.5074    0.4207 </r>
       <r>   12.8665    0.0000 </r>
       <r>   15.6612    0.0000 </r>
       <r>   15.8452    0.0000 </r>
       <r>   21.5558    0.0000 </r>
       <r>   22.7654    0.0000 </r>
       <r>   27.4751    0.0000 </r>
       <r>   27.5389    0.0000 </r>
       <r>   28.7633    0.0000 </r>
       <r>   30.0848    0.0000 </r>
       <r>   33.0198    0.0000 </r>
       <r>   33.3069    0.0000 </r>
       <r>   34.9483    0.0000 </r>
       <r>   37.8960    0.0000 </r>
       <r>   37.9897    0.0000 </r>
       <r>   40.8165    0.0000 </r>
       <r>   41.9500    0.0000 </r>
       <r>   42.5164    0.0000 </r>
       <r>   42.5644    0.0000 </r>
       <r>   47.6161    0.0000 </r>
       <r>   48.2179    0.0000 </r>
       <r>   51.6175    0.0000 </r>
      </set>
      <set comment="kpoint 3">
       <r>   -1.4315    1.0000 </r>
       <r>    1.3402    1.0000 </r>
       <r>    1.4015    1.0000 </r>
       <r>    3.1683    1.0000 </r>
       <r>    3.2115    1.0000 </r>
       <r>    3.7479    1.0000 </r>
       <r>    3.9866    1.0000 </r>
       <r>    4.4907    1.0000 </r>
       <r>    4.6424    1.0000 </r>
       <r>    4.7623    1.0000 </r>
       <r>    5.3353    0.9809 </r>
       <r>   10.3611   -0.0000 </r>
       <r>   16.8877    0.0000 </r>
       <r>   17.0685    0.0000 </r>
       <r>   21.9108    0.0000 </r>
       <r>   23.6294    0.0000 </r>
       <r>   25.4300    0.0000 </r>
       <r>   26.9630    0.0000 </r>
       <r>   28.6753    0.0000 </r>
       <r>   30.5669    0.0000 </r>
       <r>   30.6800    0.0000 </r>
       <r>   33.3825    0.0000 </r>
       <r>   34.9422    0.0000 </r>
       <r>   38.4896    0.0000 </r>
       <r>   40.8706    0.0000 </r>
       <r>   41.6187    0.0000 </r>
       <r>   42.3987    0.0000 </r>
       <r>   44.9600    0.0000 </r>
       <r>   45.3408    0.0000 </r>
       <r>   45.3565    0.0000 </r>
       <r>   45.9130    0.0000 </r>
       <r>   50.3703    0.0000 </r>
      </set>
      <set comment="kpoint 4">
       <r>   -0.4232    1.0000 </r>
       <r>    1.5061    1.0000 </r>
       <r>    1.8336    1.0000 </r>
       <r>    3.1688    1.0000 </r>
       <r>    3.2461    1.0000 </r>
       <r>    3.6661    1.0000 </r>
       <r>    4.0307    1.0000 </r>
       <r>    4.0475    1.0000 </r>
       <r>    4.2839    1.0000 </r>
       <r>    4.8598    1.0000 </r>
       <r>    5.0612    1.0050 </r>
       <r>    8.0894   -0.0000 </r>
       <r>   18.4485    0.0000 </r>
       <r>   18.6728    0.0000 </r>
       <r>   22.5193    0.0000 </r>
       <r>   23.5861    0.0000 </r>
       <r>   24.3035    0.0000 </r>
       <r>   24.7498    0.0000 </r>
       <r>   26.7345    0.0000 </r>
       <r>   28.4730    0.0000 </r>
       <r>   34.3950    0.0000 </r>
       <r>   34.4527    0.0000 </r>
       <r>   36.1177    0.0000 </r>
       <r>   39.1567    0.0000 </r>
       <r>   39.1832    0.0000 </r>
       <r>   42.6440    0.0000 </r>
       <r>   43.2490    0.0000 </r>
       <r>   43.6956    0.0000 </r>
       <r>   45.7666    0.0000 </r>
       <r>   47.6880    0.0000 </r>
       <r>   48.7306    0.0000 </r>
       <r>   49.5094    0.0000 </r>
      </set>
      <set comment="kpoint 5">
       <r>    0.6164    1.0000 </r>
       <r>    1.3252    1.0000 </r>
       <r>    2.3395    1.0000 </r>
       <r>    2.8455    1.0000 </r>
       <r>    3.4192    1.0000 </r>
       <r>    3.6408    1.0000 </r>
       <r>    3.6744    1.0000 </r>
       <r>    3.8896    1.0000 </r>
       <r>    4.3849    1.0000 </r>
       <r>    4.7309    1.0000 </r>
       <r>    5.3155    1.0049 </r>
       <r>    6.3416   -0.0000 </r>
       <r>   20.1582    0.0000 </r>
       <r>   20.5310    0.0000 </r>
       <r>   21.8718    0.0000 </r>
       <r>   22.5698    0.0000 </r>
       <r>   23.4833    0.0000 </r>
       <r>   24.9044    0.0000 </r>
       <r>   25.2363    0.0000 </r>
       <r>   26.6207    0.0000 </r>
       <r>   35.8123    0.0000 </r>
       <r>   37.2904    0.0000 </r>
       <r>   37.9294    0.0000 </r>
       <r>   38.9115    0.0000 </r>
       <r>   40.0563    0.0000 </r>
       <r>   40.1435    0.0000 </r>
       <r>   41.5687    0.0000 </r>
       <r>   43.0902    0.0000 </r>
       <r>   46.1096    0.0000 </r>
       <r>   47.1842    0.0000 </r>
       <r>   50.2601    0.0000 </r>
       <r>   52.4271    0.0000 </r>
      </set>
      <set comment="kpoint 6">
       <r>    0.6164    1.0000 </r>
       <r>    1.3252    1.0000 </r>
       <r>    2.3395    1.0000 </r>
       <r>    2.8455    1.0000 </r>
       <r>    3.4192    1.0000 </r>
       <r>    3.6408    1.0000 </r>
       <r>    3.6744    1.0000 </r>
       <r>    3.8896    1.0000 </r>
       <r>    4.3849    1.0000 </r>
       <r>    4.7309    1.0000 </r>
       <r>    5.3155    1.0049 </r>
       <r>    6.3416   -0.0000 </r>
       <r>   20.1582    0.0000 </r>
       <r>   20.5310    0.0000 </r>
       <r>   21.8718    0.0000 </r>
       <r>   22.5698    0.0000 </r>
       <r>   23.4833    0.0000 </r>
       <r>   24.9044    0.0000 </r>
       <r>   25.2363    0.0000 </r>
       <r>   26.6207    0.0000 </r>
       <r>   35.8123    0.0000 </r>
       <r>   37.2904    0.0000 </r>
       <r>   37.9294    0.0000 </r>
       <r>   38.9115    0.0000 </r>
       <r>   40.0563    0.0000 </r>
       <r>   40.1435    0.0000 </r>
       <r>   41.5687    0.0000 </r>
       <r>   43.0902    0.0000 </r>
       <r>   46.1096    0.0000 </r>
       <r>   47.1842    0.0000 </r>
       <r>   50.2601    0.0000 </r>
       <r>   52.4271    0.0000 </r>
      </set>
      <set comment="kpoint 7">
       <r>   -0.4232    1.0000 </r>
       <r>    1.5061    1.0000 </r>
       <r>    1.8336    1.0000 </r>
       <r>    3.1688    1.0000 </r>
       <r>    3.2461    1.0000 </r>
       <r>    3.6661    1.0000 </r>
       <r>    4.0307    1.0000 </r>
       <r>    4.0475    1.0000 </r>
       <r>    4.2839    1.0000 </r>
       <r>    4.8598    1.0000 </r>
       <r>    5.0612    1.0050 </r>
       <r>    8.0894   -0.0000 </r>
       <r>   18.4485    0.0000 </r>
       <r>   18.6728    0.0000 </r>
       <r>   22.5193    0.0000 </r>
       <r>   23.5861    0.0000 </r>
       <r>   24.3035    0.0000 </r>
       <r>   24.7498    0.0000 </r>
       <r>   26.7345    0.0000 </r>
       <r>   28.4730    0.0000 </r>
       <r>   34.3950    0.0000 </r>
       <r>   34.4527    0.0000 </r>
       <r>   36.1177    0.0000 </r>
       <r>   39.1567    0.0000 </r>
       <r>   39.1832    0.0000 </r>
       <r>   42.6440    0.0000 </r>
       <r>   43.2490    0.0000 </r>
       <r>   43.6956    0.0000 </r>
       <r>   45.7666    0.0000 </r>
       <r>   47.6880    0.0000 </r>
       <r>   48.7306    0.0000 </r>
       <r>   49.5094    0.0000 </r>
      </set>
      <set comment="kpoint 8">
       <r>   -1.4315    1.0000 </r>
       <r>    1.3402    1.0000 </r>
       <r>    1.4015    1.0000 </r>
       <r>    3.1683    1.0000 </r>
       <r>    3.2115    1.0000 </r>
       <r>    3.7479    1.0000 </r>
       <r>    3.9866    1.0000 </r>
       <r>    4.4907    1.0000 </r>
       <r>    4.6424    1.0000 </r>
       <r>    4.7623    1.0000 </r>
       <r>    5.3353    0.9809 </r>
       <r>   10.3611   -0.0000 </r>
       <r>   16.8877    0.0000 </r>
       <r>   17.0685    0.0000 </r>
       <r>   21.9108    0.0000 </r>
       <r>   23.6294    0.0000 </r>
       <r>   25.4300    0.0000 </r>
       <r>   26.9630    0.0000 </r>
       <r>   28.6753    0.0000 </r>
       <r>   30.5669    0.0000 </r>
       <r>   30.6800    0.0000 </r>
       <r>   33.3825    0.0000 </r>
       <r>   34.9422    0.0000 </r>
       <r>   38.4896    0.0000 </r>
       <r>   40.8706    0.0000 </r>
       <r>   41.6187    0.0000 </r>
       <r>   42.3987    0.0000 </r>
       <r>   44.9600    0.0000 </r>
       <r>   45.3408    0.0000 </r>
       <r>   45.3565    0.0000 </r>
       <r>   45.9130    0.0000 </r>
       <r>   50.3703    0.0000 </r>
      </set>
      <set comment="kpoint 9">
       <r>   -2.1851    1.0000 </r>
       <r>    1.0890    1.0000 </r>
       <r>    1.0899    1.0000 </r>
       <r>    3.1708    1.0000 </r>
       <r>    3.2175    1.0000 </r>
       <r>    3.5121    1.0000 </r>
       <r>    4.2784    1.0000 </r>
       <r>    4.5085    1.0000 </r>
       <r>    4.9693    1.0007 </r>
       <r>    5.2268    1.0345 </r>
       <r>    5.5074    0.4207 </r>
       <r>   12.8665    0.0000 </r>
       <r>   15.6612    0.0000 </r>
       <r>   15.8452    0.0000 </r>
       <r>   21.5558    0.0000 </r>
       <r>   22.7654    0.0000 </r>
       <r>   27.4751    0.0000 </r>
       <r>   27.5389    0.0000 </r>
       <r>   28.7633    0.0000 </r>
       <r>   30.0848    0.0000 </r>
       <r>   33.0198    0.0000 </r>
       <r>   33.3069    0.0000 </r>
       <r>   34.9483    0.0000 </r>
       <r>   37.8960    0.0000 </r>
       <r>   37.9897    0.0000 </r>
       <r>   40.8165    0.0000 </r>
       <r>   41.9500    0.0000 </r>
       <r>   42.5164    0.0000 </r>
       <r>   42.5644    0.0000 </r>
       <r>   47.6161    0.0000 </r>
       <r>   48.2179    0.0000 </r>
       <r>   51.6175    0.0000 </r>
      </set>
      <set comment="kpoint 10">
       <r>   -2.5819    1.0000 </r>
       <r>    0.9255    1.0000 </r>
       <r>    0.9255    1.0000 </r>
       <r>    3.2266    1.0000 </r>
       <r>    3.2266    1.0000 </r>
       <r>    3.3485    1.0000 </r>
       <r>    4.4366    1.0000 </r>
       <r>    4.4366    1.0000 </r>
       <r>    5.3437    0.9680 </r>
       <r>    5.5277    0.3376 </r>
       <r>    5.5277    0.3376 </r>
       <r>   14.9685    0.0000 </r>
       <r>   14.9685    0.0000 </r>
       <r>   15.2157    0.0000 </r>
       <r>   21.3922    0.0000 </r>
       <r>   21.3922    0.0000 </r>
       <r>   26.1124    0.0000 </r>
       <r>   29.4833    0.0000 </r>
       <r>   29.4833    0.0000 </r>
       <r>   30.4025    0.0000 </r>
       <r>   34.6648    0.0000 </r>
       <r>   35.0838    0.0000 </r>
       <r>   35.0838    0.0000 </r>
       <r>   36.7599    0.0000 </r>
       <r>   36.7599    0.0000 </r>
       <r>   39.4812    0.0000 </r>
       <r>   39.4812    0.0000 </r>
       <r>   39.7994    0.0000 </r>
       <r>   43.8742    0.0000 </r>
       <r>   49.6404    0.0000 </r>
       <r>   51.0946    0.0000 </r>
       <r>   51.0946    0.0000 </r>
      </set>
      <set comment="kpoint 11">
       <r>   -2.1851    1.0000 </r>
       <r>    1.0890    1.0000 </r>
       <r>    1.0899    1.0000 </r>
       <r>    3.1708    1.0000 </r>
       <r>    3.2175    1.0000 </r>
       <r>    3.5121    1.0000 </r>
       <r>    4.2784    1.0000 </r>
       <r>    4.5085    1.0000 </r>
       <r>    4.9693    1.0007 </r>
       <r>    5.2268    1.0345 </r>
       <r>    5.5074    0.4207 </r>
       <r>   12.8665    0.0000 </r>
[...]
       <r>    39.6732     0.6407    23.8166 </r>
       <r>    39.8862     0.6128    23.9471 </r>
       <r>    40.0992     0.6251    24.0803 </r>
       <r>    40.3122     0.6402    24.2166 </r>
       <r>    40.5253     0.2695    24.2741 </r>
       <r>    40.7383     0.5205    24.3849 </r>
       <r>    40.9513     0.8448    24.5649 </r>
       <r>    41.1643     0.4722    24.6655 </r>
       <r>    41.3773     0.6684    24.8079 </r>
       <r>    41.5903     0.6464    24.9456 </r>
       <r>    41.8034     0.4814    25.0481 </r>
       <r>    42.0164     0.4429    25.1425 </r>
       <r>    42.2294     0.2407    25.1937 </r>
       <r>    42.4424     0.4242    25.2841 </r>
       <r>    42.6554     1.1820    25.5359 </r>
       <r>    42.8685     0.8955    25.7266 </r>
       <r>    43.0815     0.5164    25.8366 </r>
       <r>    43.2945     0.8655    26.0210 </r>
       <r>    43.5075     0.8056    26.1926 </r>
       <r>    43.7205     0.5498    26.3097 </r>
       <r>    43.9335     0.6698    26.4524 </r>
       <r>    44.1466     0.2829    26.5127 </r>
       <r>    44.3596     0.5468    26.6292 </r>
       <r>    44.5726     0.5823    26.7532 </r>
       <r>    44.7856     0.5095    26.8617 </r>
       <r>    44.9986     0.3371    26.9335 </r>
       <r>    45.2117     0.2682    26.9907 </r>
       <r>    45.4247     0.5196    27.1014 </r>
       <r>    45.6377     0.5336    27.2150 </r>
       <r>    45.8507     0.6299    27.3492 </r>
       <r>    46.0637     1.1612    27.5966 </r>
       <r>    46.2768     1.0007    27.8097 </r>
       <r>    46.4898     0.3004    27.8737 </r>
       <r>    46.7028     0.1622    27.9083 </r>
       <r>    46.9158     0.3928    27.9919 </r>
       <r>    47.1288     0.6689    28.1344 </r>
       <r>    47.3418     0.7095    28.2856 </r>
       <r>    47.5549     1.1054    28.5211 </r>
       <r>    47.7679     0.9627    28.7261 </r>
       <r>    47.9809     0.4398    28.8198 </r>
       <r>    48.1939     0.4173    28.9087 </r>
       <r>    48.4069     0.4332    29.0010 </r>
       <r>    48.6200     0.3925    29.0846 </r>
       <r>    48.8330     0.4953    29.1901 </r>
       <r>    49.0460     0.4284    29.2814 </r>
       <r>    49.2590     0.5704    29.4029 </r>
       <r>    49.4720     0.8880    29.5921 </r>
       <r>    49.6850     0.7814    29.7585 </r>
       <r>    49.8981     0.3468    29.8324 </r>
       <r>    50.1111     0.4842    29.9355 </r>
       <r>    50.3241     0.6406    30.0720 </r>
       <r>    50.5371     0.4311    30.1638 </r>
       <r>    50.7501     0.4411    30.2578 </r>
       <r>    50.9632     0.6350    30.3931 </r>
       <r>    51.1762     0.9119    30.5873 </r>
       <r>    51.3892     0.8923    30.7774 </r>
       <r>    51.6022     0.5827    30.9015 </r>
       <r>    51.8152     0.4451    30.9963 </r>
       <r>    52.0282     0.2749    31.0549 </r>
       <r>    52.2413     0.5035    31.1621 </r>
       <r>    52.4543     0.7269    31.3170 </r>
       <r>    52.6673     0.7619    31.4793 </r>
       <r>    52.8803     0.4277    31.5704 </r>
       <r>    53.0933     0.2394    31.6214 </r>
       <r>    53.3064     0.4936    31.7265 </r>
       <r>    53.5194     0.2355    31.7767 </r>
       <r>    53.7324     0.2152    31.8225 </r>
       <r>    53.9454     0.5383    31.9372 </r>
       <r>    54.1584     0.0847    31.9552 </r>
       <r>    54.3715    -0.0162    31.9518 </r>
       <r>    54.5845     0.0034    31.9525 </r>
       <r>    54.7975     0.0798    31.9695 </r>
       <r>    55.0105     0.0393    31.9778 </r>
       <r>    55.2235     0.0811    31.9951 </r>
       <r>    55.4365     0.0263    32.0007 </r>
       <r>    55.6496    -0.0033    32.0000 </r>
       <r>    55.8626    -0.0001    32.0000 </r>
       <r>    56.0756    -0.0000    32.0000 </r>
       <r>    56.2886    -0.0000    32.0000 </r>
       <r>    56.5016    -0.0000    32.0000 </r>
       <r>    56.7147     0.0000    32.0000 </r>
       <r>    56.9277     0.0000    32.0000 </r>
       <r>    57.1407     0.0000    32.0000 </r>
       <r>    57.3537     0.0000    32.0000 </r>
       <r>    57.5667     0.0000    32.0000 </r>
       <r>    57.7797     0.0000    32.0000 </r>
       <r>    57.9928     0.0000    32.0000 </r>
       <r>    58.2058     0.0000    32.0000 </r>
       <r>    58.4188     0.0000    32.0000 </r>
      </set>
      <set comment="spin 2">
       <r>    -5.4867     0.0000     0.0000 </r>
       <r>    -5.2737     0.0000     0.0000 </r>
       <r>    -5.0607     0.0000     0.0000 </r>
       <r>    -4.8477     0.0000     0.0000 </r>
       <r>    -4.6347     0.0000     0.0000 </r>
       <r>    -4.4216     0.0000     0.0000 </r>
       <r>    -4.2086    -0.0000    -0.0000 </r>
       <r>    -3.9956    -0.0000    -0.0000 </r>
       <r>    -3.7826    -0.0000    -0.0000 </r>
       <r>    -3.5696    -0.0000    -0.0000 </r>
       <r>    -3.3565    -0.0000    -0.0000 </r>
       <r>    -3.1435    -0.0000    -0.0000 </r>
       <r>    -2.9305    -0.0000    -0.0000 </r>
       <r>    -2.7175    -0.0010    -0.0002 </r>
       <r>    -2.5045     0.0073     0.0013 </r>
       <r>    -2.2915     0.0252     0.0067 </r>
       <r>    -2.0784     0.0355     0.0142 </r>
       <r>    -1.8654     0.0772     0.0307 </r>
       <r>    -1.6524     0.0523     0.0418 </r>
       <r>    -1.4394     0.0658     0.0559 </r>
       <r>    -1.2264     0.0872     0.0744 </r>
       <r>    -1.0133     0.0846     0.0925 </r>
       <r>    -0.8003     0.1644     0.1275 </r>
       <r>    -0.5873     0.0749     0.1434 </r>
       <r>    -0.3743     0.0749     0.1594 </r>
       <r>    -0.1613     0.1416     0.1896 </r>
       <r>     0.0517     0.1603     0.2237 </r>
       <r>     0.2648     0.2459     0.2761 </r>
       <r>     0.4778     0.0899     0.2952 </r>
       <r>     0.6908     0.1710     0.3317 </r>
       <r>     0.9038     0.1706     0.3680 </r>
       <r>     1.1168     0.2596     0.4233 </r>
       <r>     1.3299     0.2632     0.4794 </r>
       <r>     1.5429     0.2883     0.5408 </r>
       <r>     1.7559     0.3936     0.6246 </r>
       <r>     1.9689     0.3634     0.7020 </r>
       <r>     2.1819     0.4823     0.8048 </r>
       <r>     2.3950     0.9345     1.0039 </r>
       <r>     2.6080     0.6893     1.1507 </r>
       <r>     2.8210     0.7446     1.3093 </r>
       <r>     3.0340     1.2597     1.5776 </r>
       <r>     3.2470     1.1676     1.8263 </r>
       <r>     3.4600     1.0410     2.0481 </r>
       <r>     3.6731     0.5022     2.1551 </r>
       <r>     3.8861     1.3395     2.4404 </r>
       <r>     4.0991     2.5397     2.9814 </r>
       <r>     4.3121     2.6016     3.5356 </r>
       <r>     4.5251     2.3536     4.0369 </r>
       <r>     4.7382     2.5000     4.5695 </r>
       <r>     4.9512     2.3508     5.0702 </r>
       <r>     5.1642     1.8887     5.4726 </r>
       <r>     5.3772     1.0942     5.7057 </r>
       <r>     5.5902     0.4374     5.7988 </r>
       <r>     5.8032     0.4997     5.9053 </r>
       <r>     6.0163     0.6095     6.0351 </r>
       <r>     6.2293     0.8613     6.2186 </r>
       <r>     6.4423     1.1614     6.4660 </r>
       <r>     6.6553     1.8284     6.8555 </r>
       <r>     6.8683     2.1500     7.3135 </r>
       <r>     7.0814     2.8833     7.9277 </r>
       <r>     7.2944     2.8305     8.5306 </r>
       <r>     7.5074     4.7073     9.5334 </r>
       <r>     7.7204     3.0540    10.1839 </r>
       <r>     7.9334     1.5017    10.5038 </r>
       <r>     8.1465     0.7697    10.6678 </r>
       <r>     8.3595     0.3798    10.7487 </r>
       <r>     8.5725     0.4198    10.8381 </r>
       <r>     8.7855     0.6583    10.9783 </r>
       <r>     8.9985     0.3547    11.0539 </r>
       <r>     9.2115     0.1476    11.0853 </r>
       <r>     9.4246     0.2301    11.1343 </r>
       <r>     9.6376     0.5091    11.2428 </r>
       <r>     9.8506     0.3942    11.3268 </r>
       <r>    10.0636     0.2288    11.3755 </r>
       <r>    10.2766     0.3043    11.4403 </r>
       <r>    10.4897     0.1728    11.4771 </r>
       <r>    10.7027     0.3557    11.5529 </r>
       <r>    10.9157     0.3890    11.6358 </r>
       <r>    11.1287     0.0238    11.6409 </r>
       <r>    11.3417     0.0379    11.6489 </r>
       <r>    11.5547     0.1391    11.6786 </r>
       <r>    11.7678     0.4418    11.7727 </r>
       <r>    11.9808     0.2858    11.8336 </r>
       <r>    12.1938     0.0150    11.8367 </r>
       <r>    12.4068     0.2357    11.8870 </r>
       <r>    12.6198     0.0887    11.9058 </r>
       <r>    12.8329     0.0030    11.9065 </r>
       <r>    13.0459     0.0231    11.9114 </r>
       <r>    13.2589     0.0343    11.9187 </r>
       <r>    13.4719     0.1041    11.9409 </r>
       <r>    13.6849     0.1768    11.9786 </r>
       <r>    13.8979     0.0696    11.9934 </r>
       <r>    14.1110     0.4900    12.0978 </r>
       <r>    14.3240     0.4986    12.2040 </r>
       <r>    14.5370     0.3422    12.2768 </r>
       <r>    14.7500     0.6117    12.4072 </r>
       <r>    14.9630     0.7535    12.5677 </r>
       <r>    15.1761     0.3048    12.6326 </r>
       <r>    15.3891     0.1222    12.6586 </r>
       <r>    15.6021     0.3208    12.7270 </r>
       <r>    15.8151     0.3448    12.8004 </r>
       <r>    16.0281     0.3683    12.8789 </r>
       <r>    16.2412     0.6492    13.0172 </r>
       <r>    16.4542     0.7211    13.1708 </r>
       <r>    16.6672     0.2287    13.2195 </r>
       <r>    16.8802     0.3856    13.3016 </r>
       <r>    17.0932     0.3236    13.3706 </r>
       <r>    17.3062     0.1116    13.3943 </r>
       <r>    17.5193     0.3352    13.4657 </r>
       <r>    17.7323     0.6082    13.5953 </r>
       <r>    17.9453     0.6694    13.7379 </r>
       <r>    18.1583     0.5209    13.8488 </r>
       <r>    18.3713     0.1465    13.8801 </r>
       <r>    18.5844     0.3105    13.9462 </r>
       <r>    18.7974     0.3617    14.0232 </r>
       <r>    19.0104     0.2522    14.0770 </r>
       <r>    19.2234     0.4949    14.1824 </r>
       <r>    19.4364     0.2795    14.2419 </r>
       <r>    19.6494     0.2956    14.3049 </r>
       <r>    19.8625     0.5409    14.4201 </r>
       <r>    20.0755     0.5532    14.5380 </r>
       <r>    20.2885     0.3507    14.6127 </r>
       <r>    20.5015     0.2360    14.6629 </r>
       <r>    20.7145     0.2565    14.7176 </r>
       <r>    20.9276     0.4128    14.8055 </r>
       <r>    21.1406     0.2339    14.8553 </r>
       <r>    21.3536     0.3165    14.9228 </r>
       <r>    21.5666     0.3115    14.9891 </r>
       <r>    21.7796     0.3439    15.0624 </r>
       <r>    21.9926     0.7942    15.2316 </r>
       <r>    22.2057     0.2034    15.2749 </r>
       <r>    22.4187     0.2410    15.3262 </r>
       <r>    22.6317     0.7120    15.4779 </r>
       <r>    22.8447     0.3489    15.5522 </r>
       <r>    23.0577     0.1842    15.5915 </r>
       <r>    23.2708     0.5132    15.7008 </r>
       <r>    23.4838     0.5871    15.8258 </r>
       <r>    23.6968     0.5768    15.9487 </r>
       <r>    23.9098     0.6254    16.0819 </r>
       <r>    24.1228     0.7645    16.2448 </r>
       <r>    24.3359     0.3487    16.3191 </r>
       <r>    24.5489     0.2555    16.3735 </r>
       <r>    24.7619     0.7861    16.5409 </r>
       <r>    24.9749     0.9599    16.7454 </r>
       <r>    25.1879     0.2396    16.7964 </r>
       <r>    25.4009     0.2353    16.8466 </r>
       <r>    25.6140     0.2594    16.9018 </r>
       <r>    25.8270     0.5947    17.0285 </r>
       <r>    26.0400     0.8799    17.2159 </r>
       <r>    26.2530     0.6768    17.3601 </r>
       <r>    26.4660     0.2136    17.4056 </r>
       <r>    26.6791     0.4236    17.4959 </r>
       <r>    26.8921     0.5050    17.6034 </r>
       <r>    27.1051     0.5530    17.7212 </r>
       <r>    27.3181     0.4351    17.8139 </r>
       <r>    27.5311     0.3015    17.8781 </r>
       <r>    27.7441     0.4718    17.9786 </r>
       <r>    27.9572     0.1788    18.0167 </r>
       <r>    28.1702     0.2252    18.0647 </r>
       <r>    28.3832     0.2200    18.1116 </r>
       <r>    28.5962     0.4006    18.1969 </r>
       <r>    28.8092     0.4179    18.2859 </r>
       <r>    29.0223     0.2411    18.3373 </r>
       <r>    29.2353     0.1303    18.3650 </r>
       <r>    29.4483     0.4276    18.4561 </r>
       <r>    29.6613     0.4765    18.5576 </r>
       <r>    29.8743     0.4293    18.6491 </r>
       <r>    30.0873     0.8943    18.8396 </r>
       <r>    30.3004     0.5756    18.9622 </r>
       <r>    30.5134     0.4617    19.0606 </r>
       <r>    30.7264     0.1878    19.1006 </r>
       <r>    30.9394     0.1044    19.1228 </r>
       <r>    31.1524     0.7702    19.2869 </r>
       <r>    31.3655     0.9930    19.4984 </r>
       <r>    31.5785     0.3976    19.5831 </r>
       <r>    31.7915     0.2403    19.6343 </r>
       <r>    32.0045     0.7336    19.7906 </r>
       <r>    32.2175     0.3260    19.8600 </r>
       <r>    32.4306     0.0837    19.8778 </r>
       <r>    32.6436     0.1097    19.9012 </r>
       <r>    32.8566     0.1118    19.9250 </r>
       <r>    33.0696     0.5739    20.0473 </r>
       <r>    33.2826     0.7343    20.2037 </r>
       <r>    33.4956     0.6717    20.3468 </r>
       <r>    33.7087     0.6457    20.4843 </r>
       <r>    33.9217     0.9816    20.6934 </r>
       <r>    34.1347     0.6756    20.8373 </r>
       <r>    34.3477     0.2681    20.8944 </r>
       <r>    34.5607     0.4416    20.9885 </r>
       <r>    34.7738     0.3532    21.0637 </r>
       <r>    34.9868     0.2909    21.1257 </r>
       <r>    35.1998     0.3736    21.2053 </r>
       <r>    35.4128     0.5449    21.3213 </r>
       <r>    35.6258     0.6057    21.4504 </r>
       <r>    35.8388     0.7532    21.6108 </r>
       <r>    36.0519     0.6106    21.7409 </r>
       <r>    36.2649     0.4420    21.8350 </r>
       <r>    36.4779     0.5650    21.9554 </r>
       <r>    36.6909     0.6416    22.0920 </r>
       <r>    36.9039     0.3675    22.1703 </r>
       <r>    37.1170     0.2871    22.2315 </r>
       <r>    37.3300     0.5464    22.3479 </r>
       <r>    37.5430     0.7634    22.5105 </r>
       <r>    37.7560     0.5460    22.6268 </r>
       <r>    37.9690     0.5376    22.7413 </r>
       <r>    38.1821     0.6281    22.8751 </r>
       <r>    38.3951     0.6949    23.0231 </r>
       <r>    38.6081     0.3629    23.1004 </r>
       <r>    38.8211     0.1146    23.1249 </r>
       <r>    39.0341     0.3070    23.1903 </r>
       <r>    39.2471     0.5832    23.3145 </r>
       <r>    39.4602     0.4336    23.4068 </r>
       <r>    39.6732     0.8456    23.5870 </r>
       <r>    39.8862     0.7035    23.7368 </r>
       <r>    40.0992     0.5646    23.8571 </r>
       <r>    40.3122     0.4626    23.9557 </r>
       <r>    40.5253     0.5398    24.0706 </r>
       <r>    40.7383     0.4170    24.1595 </r>
       <r>    40.9513     0.5741    24.2817 </r>
       <r>    41.1643     0.4523    24.3781 </r>
       <r>    41.3773     0.5757    24.5007 </r>
       <r>    41.5903     0.7786    24.6666 </r>
       <r>    41.8034     0.6914    24.8139 </r>
       <r>    42.0164     0.8036    24.9850 </r>
       <r>    42.2294     0.3278    25.0549 </r>
       <r>    42.4424     0.1830    25.0938 </r>
       <r>    42.6554     0.2631    25.1499 </r>
       <r>    42.8685     0.8771    25.3367 </r>
       <r>    43.0815     1.0071    25.5512 </r>
       <r>    43.2945     0.7109    25.7027 </r>
       <r>    43.5075     0.6123    25.8331 </r>
       <r>    43.7205     0.8436    26.0128 </r>
       <r>    43.9335     0.7628    26.1753 </r>
       <r>    44.1466     0.5223    26.2866 </r>
       <r>    44.3596     0.4928    26.3915 </r>
       <r>    44.5726     0.3510    26.4663 </r>
       <r>    44.7856     0.5278    26.5787 </r>
       <r>    44.9986     0.6917    26.7261 </r>
       <r>    45.2117     0.3528    26.8012 </r>
       <r>    45.4247     0.4346    26.8938 </r>
       <r>    45.6377     0.2464    26.9463 </r>
       <r>    45.8507     0.5912    27.0722 </r>
       <r>    46.0637     0.9151    27.2672 </r>
       <r>    46.2768     0.5422    27.3827 </r>
       <r>    46.4898     0.6081    27.5122 </r>
       <r>    46.7028     1.0346    27.7326 </r>
       <r>    46.9158     0.5352    27.8466 </r>
       <r>    47.1288     0.1455    27.8776 </r>
       <r>    47.3418     0.3990    27.9626 </r>
       <r>    47.5549     0.4674    28.0622 </r>
       <r>    47.7679     0.6953    28.2103 </r>
       <r>    47.9809     1.0098    28.4254 </r>
       <r>    48.1939     0.9800    28.6341 </r>
       <r>    48.4069     0.5194    28.7448 </r>
       <r>    48.6200     0.7180    28.8977 </r>
       <r>    48.8330     0.6653    29.0395 </r>
       <r>    49.0460     0.3989    29.1244 </r>
       <r>    49.2590     0.0603    29.1373 </r>
       <r>    49.4720     0.3898    29.2203 </r>
       <r>    49.6850     0.6309    29.3547 </r>
       <r>    49.8981     0.5308    29.4678 </r>
       <r>    50.1111     0.7800    29.6339 </r>
       <r>    50.3241     0.8658    29.8184 </r>
       <r>    50.5371     0.2646    29.8747 </r>
       <r>    50.7501     0.5184    29.9852 </r>
       <r>    50.9632     0.4621    30.0836 </r>
       <r>    51.1762     0.5375    30.1981 </r>
       <r>    51.3892     0.7131    30.3500 </r>
       <r>    51.6022     0.4002    30.4352 </r>
       <r>    51.8152     0.7012    30.5846 </r>
       <r>    52.0282     0.9116    30.7788 </r>
       <r>    52.2413     0.4335    30.8712 </r>
       <r>    52.4543     0.4108    30.9587 </r>
       <r>    52.6673     0.4924    31.0636 </r>
       <r>    52.8803     0.3612    31.1405 </r>
       <r>    53.0933     0.6741    31.2841 </r>
       <r>    53.3064     0.7576    31.4455 </r>
       <r>    53.5194     0.7152    31.5978 </r>
       <r>    53.7324     0.3804    31.6789 </r>
       <r>    53.9454     0.3596    31.7555 </r>
       <r>    54.1584     0.1453    31.7864 </r>
       <r>    54.3715     0.2141    31.8320 </r>
       <r>    54.5845     0.1942    31.8734 </r>
       <r>    54.7975     0.1910    31.9141 </r>
       <r>    55.0105     0.2320    31.9635 </r>
       <r>    55.2235     0.0625    31.9768 </r>
       <r>    55.4365     0.0188    31.9809 </r>
       <r>    55.6496     0.0844    31.9988 </r>
       <r>    55.8626     0.0073    32.0004 </r>
       <r>    56.0756    -0.0019    32.0000 </r>
       <r>    56.2886    -0.0000    32.0000 </r>
       <r>    56.5016    -0.0000    32.0000 </r>
       <r>    56.7147    -0.0000    32.0000 </r>
       <r>    56.9277    -0.0000    32.0000 </r>
       <r>    57.1407     0.0000    32.0000 </r>
       <r>    57.3537     0.0000    32.0000 </r>
       <r>    57.5667     0.0000    32.0000 </r>
       <r>    57.7797     0.0000    32.0000 </r>
       <r>    57.9928     0.0000    32.0000 </r>
       <r>    58.2058     0.0000    32.0000 </r>
       <r>    58.4188     0.0000    32.0000 </r>
      </set>
     </set>
    </array>
   </total>
  </dos>
 </calculation>
 <structure name="finalpos" >
  <crystal>
   <varray name="basis" >
    <v>       2.86000000       0.00000000       0.00000000 </v>
    <v>       0.00000000       2.86000000       0.00000000 </v>
    <v>       0.00000000       0.00000000       2.86000000 </v>
   </varray>
   <i name="volume">     23.39365600 </i>
   <varray name="rec_basis" >
    <v>       0.34965035       0.00000000       0.00000000 </v>
    <v>       0.00000000       0.34965035       0.00000000 </v>
    <v>       0.00000000       0.00000000       0.34965035 </v>
   </varray>
  </crystal>
  <varray name="positions" >
   <v>       0.00000000       0.00000000       0.00000000 </v>
   <v>       0.50000000       0.50000000       0.50000000 </v>
  </varray>
 </structure>
</modeling>
