   2   2   0   0
  0.1169683E+02  0.2860000E-09  0.2860000E-09  0.2860000E-09  0.5000000E-15
  1.000000000000000E-004
  CAR 
 Fe Bulk                                 
     57.27819728     -5.13326847  301      5.43958623      1.00000000
     -5.133  0.0000E+00  0.0000E+00  0.0000E+00  0.0000E+00
     -4.925  0.0000E+00  0.0000E+00  0.0000E+00  0.0000E+00
     -4.717  0.0000E+00  0.0000E+00  0.0000E+00  0.0000E+00
     -4.509  0.0000E+00  0.0000E+00  0.0000E+00  0.0000E+00
     -4.301  0.0000E+00  0.0000E+00  0.0000E+00  0.0000E+00
     -4.093 -0.2016E-36  0.0000E+00 -0.4195E-37  0.0000E+00
     -3.885 -0.7902E-29 -0.3412E-33 -0.1644E-29 -0.7097E-34
     -3.677 -0.3497E-22 -0.5469E-26 -0.7274E-23 -0.1138E-26
     -3.469 -0.1687E-16 -0.9877E-20 -0.3510E-17 -0.2055E-20
     -3.261 -0.9192E-12 -0.1930E-14 -0.1912E-12 -0.4015E-15
     -3.053 -0.5414E-08 -0.4239E-10 -0.1126E-08 -0.8819E-11
     -2.845 -0.3258E-05 -0.9899E-07 -0.6790E-06 -0.2060E-07
     -2.637 -0.1610E-03 -0.2246E-04 -0.3418E-04 -0.4693E-05
     -2.429  0.6460E-03 -0.2898E-03  0.1002E-03 -0.6498E-04
     -2.221  0.6605E-02  0.3043E-02  0.1474E-02  0.5682E-03
     -2.013  0.2091E-02  0.6093E-02  0.1909E-02  0.1836E-02
     -1.805 -0.2739E-03  0.1911E-03  0.1852E-02  0.1875E-02
     -1.597 -0.4918E-03 -0.1537E-03  0.1750E-02  0.1843E-02
     -1.389  0.1901E-02 -0.8170E-03  0.2146E-02  0.1674E-02
     -1.181  0.1979E-01  0.6799E-02  0.6263E-02  0.3088E-02
     -0.973  0.6332E-02  0.1959E-01  0.7580E-02  0.7164E-02
     -0.764 -0.1047E-02  0.1630E-02  0.7362E-02  0.7503E-02
     -0.556 -0.1117E-03 -0.6744E-03  0.7339E-02  0.7363E-02
     -0.348  0.1670E-01 -0.2775E-03  0.1081E-01  0.7305E-02
     -0.140  0.1125E-01  0.1598E-01  0.1316E-01  0.1063E-01
      0.068 -0.1427E-02  0.1212E-01  0.1286E-01  0.1315E-01
      0.276  0.2118E-02 -0.9043E-03  0.1330E-01  0.1296E-01
      0.484  0.2251E-01 -0.1250E-02  0.1798E-01  0.1270E-01
      0.692  0.2697E-01  0.1354E-01  0.2359E-01  0.1552E-01
      0.900  0.6143E-01  0.2315E-01  0.3637E-01  0.2034E-01
      1.108  0.3864E-01 -0.1324E-02  0.4441E-01  0.2006E-01
      1.316  0.3330E-01  0.2162E-01  0.5134E-01  0.2456E-01
      1.524  0.1464E+00  0.3363E-01  0.8179E-01  0.3156E-01
      1.732  0.7627E-01 -0.1004E-02  0.9766E-01  0.3135E-01
      1.940  0.2881E-01  0.1514E-01  0.1037E+00  0.3450E-01
      2.148  0.7712E-01  0.3287E-01  0.1197E+00  0.4134E-01
      2.356  0.1342E+00  0.2414E-01  0.1476E+00  0.4636E-01
      2.564  0.1275E+00  0.4242E-01  0.1741E+00  0.5518E-01
      2.772  0.1277E+00  0.6713E-01  0.2007E+00  0.6915E-01
      2.980  0.1051E+00  0.4652E-01  0.2226E+00  0.7883E-01
      3.188  0.1625E+00  0.6251E-01  0.2564E+00  0.9183E-01
      3.396  0.9108E-01  0.4477E-01  0.2753E+00  0.1011E+00
      3.604  0.3350E-01  0.2042E-01  0.2823E+00  0.1054E+00
      3.812  0.4546E-01  0.8103E-01  0.2918E+00  0.1223E+00
      4.020  0.5334E-01  0.1134E+00  0.3029E+00  0.1458E+00
      4.228  0.1236E+00  0.1258E+00  0.3286E+00  0.1720E+00
      4.436  0.2125E+00  0.1521E+00  0.3728E+00  0.2037E+00
      4.645  0.2684E+00  0.1050E+00  0.4286E+00  0.2255E+00
      4.853  0.1706E+00  0.1158E+00  0.4641E+00  0.2496E+00
      5.061  0.8539E-01  0.8133E-01  0.4819E+00  0.2665E+00
      5.269  0.3263E-01  0.7215E-01  0.4887E+00  0.2815E+00
      5.477  0.1227E+00  0.5475E-01  0.5142E+00  0.2929E+00
      5.685  0.8652E-01  0.6355E-02  0.5322E+00  0.2942E+00
      5.893 -0.2433E-02  0.1910E-01  0.5317E+00  0.2982E+00
      6.101 -0.1617E-02  0.7075E-01  0.5314E+00  0.3129E+00
      6.309  0.1520E-01  0.2053E-01  0.5345E+00  0.3172E+00
      6.517  0.1199E-01  0.7817E-01  0.5370E+00  0.3335E+00
      6.725  0.8899E-02  0.1322E+00  0.5389E+00  0.3610E+00
      6.933  0.2455E-01  0.1164E+00  0.5440E+00  0.3852E+00
      7.141  0.1938E-01  0.1359E+00  0.5480E+00  0.4134E+00
      7.349 -0.6601E-03  0.2068E+00  0.5479E+00  0.4565E+00
      7.557  0.1134E-01  0.1769E+00  0.5502E+00  0.4933E+00
      7.765  0.5694E-01  0.1564E+00  0.5621E+00  0.5258E+00
      7.973  0.1444E-01  0.3225E-01  0.5651E+00  0.5325E+00
      8.181  0.4862E-02  0.1297E-01  0.5661E+00  0.5352E+00
      8.389  0.1946E-01  0.8834E-02  0.5701E+00  0.5370E+00
      8.597  0.1540E-02  0.1497E-01  0.5705E+00  0.5402E+00
      8.805 -0.1298E-02  0.3336E-01  0.5702E+00  0.5471E+00
      9.013  0.7833E-02  0.2691E-01  0.5718E+00  0.5527E+00
      9.221  0.1906E-01  0.3071E-01  0.5758E+00  0.5591E+00
      9.429  0.9488E-03  0.2827E-01  0.5760E+00  0.5650E+00
      9.637 -0.1037E-02  0.2698E-02  0.5758E+00  0.5655E+00
      9.845  0.1384E-01  0.1998E-01  0.5786E+00  0.5697E+00
     10.054  0.1415E-01  0.3783E-02  0.5816E+00  0.5705E+00
     10.262  0.3991E-04 -0.1152E-02  0.5816E+00  0.5702E+00
     10.470  0.9627E-02  0.1481E-01  0.5836E+00  0.5733E+00
     10.678  0.2397E-01  0.1272E-01  0.5886E+00  0.5760E+00
     10.886  0.2397E-01  0.3265E-02  0.5936E+00  0.5766E+00
     11.094  0.5018E-02  0.2009E-01  0.5946E+00  0.5808E+00
     11.302 -0.7853E-03  0.2591E-02  0.5945E+00  0.5814E+00
     11.510 -0.3226E-04  0.1186E-01  0.5944E+00  0.5838E+00
     11.718 -0.1365E-06  0.3099E-01  0.5944E+00  0.5903E+00
     11.926 -0.1634E-04  0.1974E-01  0.5944E+00  0.5944E+00
     12.134 -0.4898E-03  0.7318E-03  0.5943E+00  0.5945E+00
     12.342  0.2151E-02 -0.4081E-03  0.5948E+00  0.5944E+00
     12.550  0.1767E-01 -0.6653E-05  0.5985E+00  0.5944E+00
     12.758  0.3717E-01 -0.1231E-06  0.6062E+00  0.5944E+00
     12.966  0.2683E-01 -0.3188E-04  0.6118E+00  0.5944E+00
     13.174  0.1553E-01 -0.6262E-03  0.6150E+00  0.5943E+00
     13.382  0.1690E-01  0.4359E-02  0.6185E+00  0.5952E+00
     13.590  0.2725E-03  0.2021E-01  0.6186E+00  0.5994E+00
     13.798 -0.6162E-03  0.1087E-01  0.6185E+00  0.6017E+00
     14.006  0.3665E-03  0.2481E-01  0.6185E+00  0.6068E+00
     14.214  0.1751E-01  0.4048E-01  0.6222E+00  0.6153E+00
     14.422  0.8277E-02  0.1640E-01  0.6239E+00  0.6187E+00
     14.630  0.2632E-01 -0.6246E-03  0.6294E+00  0.6185E+00
     14.838  0.8576E-01 -0.7006E-03  0.6472E+00  0.6184E+00
     15.046  0.3385E-01  0.9294E-02  0.6543E+00  0.6203E+00
     15.254  0.5341E-02  0.2100E-01  0.6554E+00  0.6247E+00
     15.463  0.1074E-02  0.1372E-01  0.6556E+00  0.6276E+00
     15.671 -0.1257E-02  0.5660E-01  0.6553E+00  0.6393E+00
     15.879  0.1005E-01  0.7450E-01  0.6574E+00  0.6548E+00
     16.087  0.3222E-01  0.5078E-02  0.6641E+00  0.6559E+00
     16.295  0.2504E-01 -0.1864E-02  0.6693E+00  0.6555E+00
     16.503  0.8281E-02 -0.4577E-03  0.6711E+00  0.6554E+00
     16.711  0.1940E-01  0.2118E-01  0.6751E+00  0.6598E+00
     16.919  0.3739E-02  0.4161E-01  0.6759E+00  0.6685E+00
     17.127  0.5930E-02  0.1890E-01  0.6771E+00  0.6724E+00
     17.335  0.2518E-01  0.1684E-01  0.6823E+00  0.6759E+00
     17.543  0.3302E-01 -0.2761E-03  0.6892E+00  0.6758E+00
     17.751  0.4939E-01  0.2963E-02  0.6995E+00  0.6765E+00
     17.959  0.2557E-01  0.2569E-01  0.7048E+00  0.6818E+00
     18.167  0.4411E-02  0.9955E-02  0.7057E+00  0.6839E+00
     18.375 -0.1975E-02  0.5298E-01  0.7053E+00  0.6949E+00
     18.583  0.7055E-02  0.3910E-01  0.7068E+00  0.7030E+00
     18.791  0.3857E-01  0.1291E-01  0.7148E+00  0.7057E+00
     18.999  0.1014E-01 -0.1353E-02  0.7169E+00  0.7054E+00
     19.207  0.1949E-01  0.3193E-02  0.7210E+00  0.7061E+00
     19.415  0.2257E-01  0.2958E-01  0.7257E+00  0.7123E+00
     19.623  0.1690E-01  0.2202E-01  0.7292E+00  0.7168E+00
     19.831  0.2889E-01  0.2317E-01  0.7352E+00  0.7217E+00
     20.039  0.2814E-01  0.3098E-01  0.7410E+00  0.7281E+00
     20.247 -0.2038E-02  0.8326E-02  0.7406E+00  0.7298E+00
     20.455  0.9218E-02  0.3427E-01  0.7425E+00  0.7370E+00
     20.663  0.1787E-01  0.1996E-01  0.7463E+00  0.7411E+00
     20.872 -0.3969E-03 -0.2589E-02  0.7462E+00  0.7406E+00
     21.080  0.1084E-01  0.1045E-01  0.7484E+00  0.7428E+00
     21.288  0.2158E-01  0.1696E-01  0.7529E+00  0.7463E+00
     21.496  0.4126E-01 -0.7942E-03  0.7615E+00  0.7461E+00
     21.704  0.2544E-01  0.1903E-01  0.7668E+00  0.7501E+00
     21.912 -0.7816E-03  0.4344E-01  0.7666E+00  0.7591E+00
     22.120  0.3618E-02  0.2342E-01  0.7674E+00  0.7640E+00
     22.328  0.1588E-01  0.1362E-01  0.7707E+00  0.7668E+00
     22.536  0.3613E-01 -0.9347E-03  0.7782E+00  0.7666E+00
     22.744  0.6993E-01 -0.2299E-02  0.7927E+00  0.7661E+00
     22.952  0.2922E-01  0.3436E-01  0.7988E+00  0.7733E+00
     23.160  0.1798E-01  0.7840E-01  0.8026E+00  0.7896E+00
     23.368  0.8594E-02  0.5064E-01  0.8044E+00  0.8001E+00
     23.576  0.5229E-02  0.1822E-01  0.8054E+00  0.8039E+00
     23.784  0.1894E-01 -0.9602E-03  0.8094E+00  0.8037E+00
     23.992  0.2875E-01 -0.1039E-02  0.8154E+00  0.8035E+00
     24.200  0.2352E-01  0.1318E-01  0.8203E+00  0.8063E+00
     24.408  0.2747E-01  0.3636E-01  0.8260E+00  0.8138E+00
     24.616  0.1666E-01  0.2466E-01  0.8294E+00  0.8189E+00
     24.824  0.3752E-01  0.2246E-01  0.8372E+00  0.8236E+00
     25.032  0.4769E-01  0.3303E-01  0.8472E+00  0.8305E+00
     25.240  0.5676E-01  0.2879E-01  0.8590E+00  0.8365E+00
     25.448  0.1116E-01  0.9262E-01  0.8613E+00  0.8558E+00
     25.656  0.2318E-03  0.2925E-01  0.8613E+00  0.8618E+00
     25.864  0.1855E-01 -0.3664E-02  0.8652E+00  0.8611E+00
     26.072  0.2898E-01  0.2780E-03  0.8712E+00  0.8611E+00
     26.281  0.2841E-01  0.2014E-01  0.8771E+00  0.8653E+00
     26.489  0.2036E-01  0.3067E-01  0.8814E+00  0.8717E+00
     26.697  0.5813E-01  0.2365E-01  0.8935E+00  0.8766E+00
     26.905  0.1027E-01  0.4162E-01  0.8956E+00  0.8853E+00
     27.113  0.3546E-02  0.4580E-01  0.8963E+00  0.8948E+00
     27.321 -0.8022E-03 -0.1143E-02  0.8962E+00  0.8946E+00
     27.529  0.3379E-02 -0.6705E-03  0.8969E+00  0.8944E+00
     27.737  0.1990E-01 -0.2000E-03  0.9010E+00  0.8944E+00
     27.945  0.3817E-02  0.4357E-02  0.9018E+00  0.8953E+00
     28.153  0.2819E-01  0.3290E-02  0.9077E+00  0.8960E+00
     28.361  0.3687E-01  0.3332E-01  0.9154E+00  0.9029E+00
     28.569  0.7161E-02  0.5737E-01  0.9168E+00  0.9149E+00
     28.777 -0.1262E-02  0.1029E-01  0.9166E+00  0.9170E+00
     28.985  0.9333E-02 -0.2052E-02  0.9185E+00  0.9166E+00
     29.193  0.8646E-02  0.8399E-02  0.9203E+00  0.9183E+00
     29.401  0.4516E-02  0.9697E-02  0.9213E+00  0.9203E+00
     29.609  0.2652E-01  0.1462E-01  0.9268E+00  0.9234E+00
     29.817  0.4320E-01  0.1317E-01  0.9358E+00  0.9261E+00
     30.025  0.5819E-01  0.1841E-01  0.9479E+00  0.9299E+00
     30.233  0.1738E-01  0.3489E-01  0.9515E+00  0.9372E+00
     30.441  0.5213E-01  0.7159E-01  0.9623E+00  0.9521E+00
     30.649  0.4825E-01  0.5738E-01  0.9724E+00  0.9640E+00
     30.857  0.4236E-01  0.4814E-01  0.9812E+00  0.9740E+00
     31.065  0.2024E-01  0.8474E-03  0.9854E+00  0.9742E+00
     31.273 -0.6797E-03 -0.2089E-02  0.9852E+00  0.9738E+00
     31.481 -0.3013E-03  0.1775E-01  0.9852E+00  0.9775E+00
     31.689 -0.1911E-03  0.3429E-01  0.9851E+00  0.9846E+00
     31.898 -0.4712E-03  0.3596E-02  0.9850E+00  0.9854E+00
     32.106  0.1498E-01 -0.8307E-03  0.9882E+00  0.9852E+00
     32.314  0.1184E-01 -0.8010E-04  0.9906E+00  0.9852E+00
     32.522  0.3241E-02 -0.1410E-02  0.9913E+00  0.9849E+00
     32.730  0.6482E-01  0.6900E-02  0.1005E+01  0.9863E+00
     32.938  0.4733E-01  0.5610E-01  0.1015E+01  0.9980E+00
     33.146  0.1952E-01  0.6755E-01  0.1019E+01  0.1012E+01
     33.354  0.3992E-01  0.4031E-01  0.1027E+01  0.1020E+01
     33.562  0.1805E-01  0.3132E-01  0.1031E+01  0.1027E+01
     33.770  0.4133E-01  0.2869E-02  0.1039E+01  0.1028E+01
     33.978  0.5428E-01  0.1213E-01  0.1051E+01  0.1030E+01
     34.186  0.1893E-01  0.6423E-01  0.1055E+01  0.1043E+01
     34.394  0.5497E-02  0.3611E-01  0.1056E+01  0.1051E+01
     34.602  0.3076E-01  0.2544E-01  0.1062E+01  0.1056E+01
     34.810  0.2312E-01  0.2273E-01  0.1067E+01  0.1061E+01
     35.018 -0.2515E-02  0.3607E-02  0.1066E+01  0.1062E+01
     35.226  0.1241E-01  0.1951E-01  0.1069E+01  0.1066E+01
     35.434  0.3044E-01  0.4619E-02  0.1075E+01  0.1067E+01
     35.642  0.1117E-01  0.1943E-01  0.1078E+01  0.1071E+01
     35.850  0.4376E-01  0.2266E-01  0.1087E+01  0.1075E+01
     36.058  0.2487E-01  0.2116E-01  0.1092E+01  0.1080E+01
     36.266  0.4731E-01  0.3883E-01  0.1102E+01  0.1088E+01
     36.474  0.6079E-01  0.6840E-01  0.1114E+01  0.1102E+01
     36.682  0.1191E-01  0.3637E-01  0.1117E+01  0.1110E+01
     36.890  0.1334E-01  0.1308E-01  0.1120E+01  0.1112E+01
     37.098  0.1420E-01  0.1477E-01  0.1123E+01  0.1116E+01
     37.307  0.5978E-01  0.2335E-01  0.1135E+01  0.1120E+01
     37.515  0.2430E-01  0.2176E-01  0.1140E+01  0.1125E+01
     37.723  0.1158E-01  0.4423E-01  0.1143E+01  0.1134E+01
     37.931  0.1222E-01  0.4132E-01  0.1145E+01  0.1143E+01
     38.139  0.2736E-01 -0.8052E-03  0.1151E+01  0.1143E+01
     38.347  0.5036E-02  0.5960E-02  0.1152E+01  0.1144E+01
     38.555  0.6784E-02  0.2439E-01  0.1153E+01  0.1149E+01
     38.763  0.2873E-01  0.2757E-01  0.1159E+01  0.1155E+01
     38.971  0.2634E-01  0.1427E-01  0.1165E+01  0.1158E+01
     39.179  0.2461E-01  0.1507E-01  0.1170E+01  0.1161E+01
     39.387  0.1172E-01  0.1506E-01  0.1172E+01  0.1164E+01
     39.595  0.1550E-01  0.4420E-01  0.1175E+01  0.1173E+01
     39.803  0.3432E-01  0.2211E-01  0.1183E+01  0.1178E+01
     40.011  0.5743E-01  0.3044E-01  0.1195E+01  0.1184E+01
     40.219  0.7113E-01  0.2015E-01  0.1209E+01  0.1188E+01
     40.427  0.5025E-01  0.1106E-01  0.1220E+01  0.1190E+01
     40.635  0.1265E-01  0.3845E-01  0.1222E+01  0.1198E+01
     40.843 -0.7508E-03  0.7157E-01  0.1222E+01  0.1213E+01
     41.051  0.4587E-01  0.3758E-01  0.1232E+01  0.1221E+01
     41.259  0.6416E-01  0.5549E-01  0.1245E+01  0.1233E+01
     41.467  0.1808E-01  0.3358E-01  0.1249E+01  0.1240E+01
     41.675  0.1954E-01  0.2638E-01  0.1253E+01  0.1245E+01
     41.883  0.6462E-01  0.3564E-01  0.1266E+01  0.1253E+01
     42.091  0.3208E-01  0.2248E-01  0.1273E+01  0.1257E+01
     42.299  0.1300E-01  0.4810E-01  0.1276E+01  0.1267E+01
     42.507  0.9135E-02  0.3298E-01  0.1278E+01  0.1274E+01
     42.716  0.3689E-01  0.8963E-02  0.1285E+01  0.1276E+01
     42.924  0.1811E-01  0.1992E-02  0.1289E+01  0.1276E+01
     43.132 -0.3638E-02  0.2170E-01  0.1288E+01  0.1281E+01
     43.340  0.1691E-01  0.2419E-01  0.1292E+01  0.1286E+01
     43.548  0.6685E-01  0.2223E-01  0.1306E+01  0.1291E+01
     43.756  0.2452E-01  0.5708E-01  0.1311E+01  0.1302E+01
     43.964  0.2387E-01  0.2461E-01  0.1316E+01  0.1308E+01
     44.172  0.2208E-01  0.9906E-02  0.1320E+01  0.1310E+01
     44.380  0.4389E-02  0.2326E-01  0.1321E+01  0.1315E+01
     44.588  0.2255E-01  0.1686E-02  0.1326E+01  0.1315E+01
     44.796  0.6134E-01  0.1833E-01  0.1339E+01  0.1319E+01
     45.004  0.3973E-01  0.2820E-01  0.1347E+01  0.1325E+01
     45.212  0.3738E-01  0.4427E-01  0.1355E+01  0.1334E+01
     45.420  0.1084E-01  0.4520E-01  0.1357E+01  0.1343E+01
     45.628  0.5652E-01  0.5624E-01  0.1369E+01  0.1355E+01
     45.836  0.3691E-01  0.1173E-01  0.1377E+01  0.1357E+01
     46.044  0.6671E-02  0.3533E-01  0.1378E+01  0.1365E+01
     46.252 -0.1732E-02  0.3254E-01  0.1378E+01  0.1371E+01
     46.460  0.1102E-01  0.3199E-01  0.1380E+01  0.1378E+01
     46.668  0.2071E-01  0.1569E-01  0.1384E+01  0.1381E+01
     46.876  0.1897E-01  0.1586E-02  0.1388E+01  0.1382E+01
     47.084  0.4962E-01  0.1213E-01  0.1398E+01  0.1384E+01
     47.292  0.3794E-01  0.4339E-02  0.1406E+01  0.1385E+01
     47.500  0.4516E-01  0.1614E-01  0.1416E+01  0.1388E+01
     47.708  0.6322E-01  0.7971E-01  0.1429E+01  0.1405E+01
     47.916  0.8376E-01  0.9669E-01  0.1446E+01  0.1425E+01
     48.125  0.3850E-01  0.8517E-01  0.1454E+01  0.1443E+01
     48.333  0.4066E-01  0.1961E-01  0.1463E+01  0.1447E+01
     48.541  0.1280E-01  0.1521E-01  0.1465E+01  0.1450E+01
     48.749  0.4659E-02  0.2545E-01  0.1466E+01  0.1455E+01
     48.957  0.2778E-01  0.4527E-01  0.1472E+01  0.1465E+01
     49.165  0.3410E-01  0.9709E-02  0.1479E+01  0.1467E+01
     49.373  0.2219E-02 -0.2229E-03  0.1480E+01  0.1467E+01
     49.581 -0.9122E-03  0.3683E-01  0.1480E+01  0.1474E+01
     49.789 -0.1923E-02  0.2644E-01  0.1479E+01  0.1480E+01
     49.997  0.2044E-01 -0.1329E-02  0.1483E+01  0.1480E+01
     50.205  0.5362E-01 -0.1830E-02  0.1495E+01  0.1479E+01
     50.413  0.4278E-01  0.7421E-02  0.1504E+01  0.1481E+01
     50.621  0.3936E-01  0.6144E-01  0.1512E+01  0.1494E+01
     50.829  0.1333E-01  0.4114E-01  0.1514E+01  0.1502E+01
     51.037  0.2066E-01  0.1742E-01  0.1519E+01  0.1506E+01
     51.245  0.6226E-01  0.1144E-01  0.1532E+01  0.1508E+01
     51.453  0.4333E-01  0.3309E-01  0.1541E+01  0.1515E+01
     51.661  0.2071E-01  0.1458E-01  0.1545E+01  0.1518E+01
     51.869  0.5400E-01  0.3319E-01  0.1556E+01  0.1525E+01
     52.077  0.4444E-01  0.6928E-01  0.1566E+01  0.1539E+01
     52.285  0.1566E-01  0.2692E-01  0.1569E+01  0.1545E+01
     52.493  0.3208E-01  0.8667E-01  0.1575E+01  0.1563E+01
     52.701  0.2176E-01  0.6062E-01  0.1580E+01  0.1576E+01
     52.909 -0.1860E-02  0.2129E-01  0.1580E+01  0.1580E+01
     53.117  0.1604E-01 -0.2023E-02  0.1583E+01  0.1580E+01
     53.325  0.1133E-01 -0.2109E-03  0.1585E+01  0.1580E+01
     53.534  0.8451E-02 -0.8086E-04  0.1587E+01  0.1580E+01
     53.742  0.1704E-01 -0.1182E-02  0.1591E+01  0.1579E+01
     53.950  0.2438E-01  0.9914E-02  0.1596E+01  0.1581E+01
     54.158  0.2003E-01  0.3457E-01  0.1600E+01  0.1589E+01
     54.366  0.1342E-02  0.3110E-01  0.1600E+01  0.1595E+01
     54.574 -0.4609E-03  0.2284E-01  0.1600E+01  0.1600E+01
     54.782 -0.8661E-05  0.1264E-02  0.1600E+01  0.1600E+01
     54.990 -0.1362E-07 -0.5028E-03  0.1600E+01  0.1600E+01
     55.198 -0.2196E-11 -0.9820E-05  0.1600E+01  0.1600E+01
     55.406 -0.4151E-16 -0.1625E-07  0.1600E+01  0.1600E+01
     55.614  0.0000E+00 -0.2758E-11  0.1600E+01  0.1600E+01
     55.822  0.0000E+00 -0.5337E-16  0.1600E+01  0.1600E+01
     56.030  0.0000E+00  0.0000E+00  0.1600E+01  0.1600E+01
     56.238  0.0000E+00  0.0000E+00  0.1600E+01  0.1600E+01
     56.446  0.0000E+00  0.0000E+00  0.1600E+01  0.1600E+01
     56.654  0.0000E+00  0.0000E+00  0.1600E+01  0.1600E+01
     56.862  0.0000E+00  0.0000E+00  0.1600E+01  0.1600E+01
     57.070  0.0000E+00  0.0000E+00  0.1600E+01  0.1600E+01
     57.278  0.0000E+00  0.0000E+00  0.1600E+01  0.1600E+01
