    2    2   20    2
  0.1169683E+02  0.2860000E-09  0.2860000E-09  0.2860000E-09  0.5000000E-15
  1.000000000000000E-004
  CAR 
 Fe Bulk                                 
     16    108     32
 
  0.8333333E-01  0.8333333E-01  0.8333333E-01  0.9259259E-02
    1       -2.296384     -2.173660   1.000000   1.000000
    2        1.024621      2.830651   1.000000   1.000000
    3        1.024621      2.830651   1.000000   1.000000
    4        3.160369      5.065095   1.000000   1.011806
    5        3.160369      5.065095   1.000000   1.011806
    6        3.500554      5.449613   1.000000   0.457633
    7        4.384181      7.026625   1.000000  -0.000000
    8        4.384181      7.081297   1.000000  -0.000000
    9        4.969997      7.081297   1.002223  -0.000000
   10        5.448999      7.627787   0.460221  -0.000000
   11        5.448999      7.627787   0.460221  -0.000000
   12       14.562128     15.037186   0.000000   0.000000
   13       14.562128     15.037186   0.000000   0.000000
   14       15.163406     15.575316   0.000000   0.000000
   15       22.184794     22.904334   0.000000   0.000000
   16       22.184794     22.904335   0.000000   0.000000
   17       26.913481     27.942253   0.000000   0.000000
   18       28.342058     28.332019   0.000000   0.000000
   19       28.342058     28.332020   0.000000   0.000000
   20       30.673161     30.363212   0.000000   0.000000
   21       32.739983     33.580870   0.000000   0.000000
   22       35.298129     35.582560   0.000000   0.000000
   23       35.298129     35.582560   0.000000   0.000000
   24       36.775078     37.380983   0.000000   0.000000
   25       36.775078     37.380983   0.000000   0.000000
   26       41.079517     41.898937   0.000000   0.000000
   27       41.406225     42.141853   0.000000   0.000000
   28       41.406225     42.141853   0.000000   0.000000
   29       42.701322     42.964840   0.000000   0.000000
   30       48.339691     48.848090   0.000000   0.000000
   31       50.325331     50.967905   0.000000   0.000000
   32       50.325331     50.967905   0.000000   0.000000
 
  0.2500000E+00  0.8333333E-01  0.8333333E-01  0.9259259E-02
    1       -1.255544     -1.110408   1.000000   1.000000
    2        1.406060      3.043112   1.000000   1.000000
    3        1.437751      3.321212   1.000000   1.000000
    4        3.046092      4.902849   1.000000   1.000490
    5        3.098731      4.980793   1.000000   1.002765
    6        3.936658      5.922042   1.000000  -0.001698
    7        4.043116      6.075420   1.000000  -0.000033
    8        4.169848      6.599947   1.000000  -0.000000
    9        4.582353      6.790728   1.000000  -0.000000
   10        4.766658      7.317478   1.000011  -0.000000
   11        5.388224      7.568123   0.709589  -0.000000
   12       10.577738     11.535706  -0.000000   0.000000
   13       16.218059     16.871192   0.000000   0.000000
   14       16.618114     17.172177   0.000000   0.000000
   15       22.779804     23.398348   0.000000   0.000000
   16       24.361629     24.887766   0.000000   0.000000
   17       24.705660     25.003819   0.000000   0.000000
   18       26.049485     26.414980   0.000000   0.000000
   19       29.540772     29.597314   0.000000   0.000000
   20       30.756560     31.479846   0.000000   0.000000
   21       30.891069     31.590310   0.000000   0.000000
   22       32.729207     33.040406   0.000000   0.000000
   23       35.281109     35.704008   0.000000   0.000000
   24       38.939340     39.451447   0.000000   0.000000
   25       39.572598     39.941103   0.000000   0.000000
   26       40.961876     41.088185   0.000000   0.000000
   27       43.729769     44.247112   0.000000   0.000000
   28       44.703926     45.492979   0.000000   0.000000
   29       45.495728     45.890866   0.000000   0.000000
   30       45.542491     46.002785   0.000000   0.000000
   31       46.932902     47.532848   0.000000   0.000000
   32       51.640295     52.397425   0.000000   0.000000
 
  0.4166667E+00  0.8333333E-01  0.8333333E-01  0.9259259E-02
    1        0.397906      0.722601   1.000000   1.000000
    2        1.494922      2.488225   1.000000   1.000000
    3        2.141828      4.144717   1.000000   1.000000
    4        2.842112      4.815753   1.000000   1.000047
    5        3.204180      5.010972   1.000000   1.004901
    6        3.544786      5.405623   1.000000   0.641440
    7        3.734578      5.952911   1.000000  -0.000855
    8        4.047869      6.025649   1.000000  -0.000137
    9        4.476057      6.540600   1.000000  -0.000000
   10        4.975307      7.123483   1.002477  -0.000000
   11        5.104474      7.683516   1.019624  -0.000000
   12        6.997372      8.755579  -0.000000  -0.000000
   13       18.732511     19.456892   0.000000   0.000000
   14       19.197444     19.812807   0.000000   0.000000
   15       21.550318     22.129146   0.000000   0.000000
   16       22.415965     22.973169   0.000000   0.000000
   17       24.175409     24.638831   0.000000   0.000000
   18       25.792799     26.223358   0.000000   0.000000
   19       26.583433     26.915523   0.000000   0.000000
   20       28.106275     28.524541   0.000000   0.000000
   21       33.812475     34.198244   0.000000   0.000000
   22       35.944797     36.384203   0.000000   0.000000
   23       37.517423     37.791800   0.000000   0.000000
   24       37.945569     38.569835   0.000000   0.000000
   25       40.379981     40.823096   0.000000   0.000000
   26       41.162660     41.505770   0.000000   0.000000
   27       42.712304     43.106874   0.000000   0.000000
   28       44.613889     45.058776   0.000000   0.000000
   29       46.930225     47.636383   0.000000   0.000000
   30       47.905177     48.074164   0.000000   0.000000
   31       49.054188     49.595108   0.000000   0.000000
   32       51.246584     51.966232   0.000000   0.000000
 
 -0.4166667E+00  0.8333333E-01  0.8333333E-01  0.9259259E-02
    1        0.397906      0.722601   1.000000   1.000000
    2        1.494922      2.488225   1.000000   1.000000
    3        2.141828      4.144717   1.000000   1.000000
    4        2.842112      4.815753   1.000000   1.000047
    5        3.204180      5.010972   1.000000   1.004901
    6        3.544786      5.405623   1.000000   0.641440
    7        3.734578      5.952911   1.000000  -0.000855
    8        4.047869      6.025649   1.000000  -0.000137
    9        4.476057      6.540600   1.000000  -0.000000
   10        4.975307      7.123483   1.002477  -0.000000
   11        5.104474      7.683516   1.019624  -0.000000
   12        6.997372      8.755579  -0.000000  -0.000000
   13       18.732511     19.456892   0.000000   0.000000
   14       19.197444     19.812807   0.000000   0.000000
   15       21.550318     22.129146   0.000000   0.000000
   16       22.415965     22.973169   0.000000   0.000000
   17       24.175409     24.638831   0.000000   0.000000
   18       25.792799     26.223358   0.000000   0.000000
   19       26.583433     26.915523   0.000000   0.000000
   20       28.106275     28.524541   0.000000   0.000000
   21       33.812475     34.198244   0.000000   0.000000
   22       35.944797     36.384203   0.000000   0.000000
   23       37.517423     37.791800   0.000000   0.000000
   24       37.945569     38.569835   0.000000   0.000000
   25       40.379981     40.823096   0.000000   0.000000
   26       41.162660     41.505770   0.000000   0.000000
   27       42.712304     43.106874   0.000000   0.000000
   28       44.613889     45.058776   0.000000   0.000000
   29       46.930225     47.636383   0.000000   0.000000
   30       47.905177     48.074164   0.000000   0.000000
   31       49.054188     49.595108   0.000000   0.000000
   32       51.246584     51.966232   0.000000   0.000000
 
 -0.2500000E+00  0.8333333E-01  0.8333333E-01  0.9259259E-02
    1       -1.255544     -1.110408   1.000000   1.000000
    2        1.406060      3.043112   1.000000   1.000000
    3        1.437751      3.321212   1.000000   1.000000
    4        3.046092      4.902849   1.000000   1.000490
    5        3.098731      4.980793   1.000000   1.002765
    6        3.936658      5.922042   1.000000  -0.001698
    7        4.043116      6.075420   1.000000  -0.000033
    8        4.169848      6.599947   1.000000  -0.000000
    9        4.582353      6.790728   1.000000  -0.000000
   10        4.766658      7.317478   1.000011  -0.000000
   11        5.388224      7.568123   0.709589  -0.000000
   12       10.577738     11.535706  -0.000000   0.000000
   13       16.218059     16.871192   0.000000   0.000000
   14       16.618114     17.172177   0.000000   0.000000
   15       22.779804     23.398348   0.000000   0.000000
   16       24.361629     24.887766   0.000000   0.000000
   17       24.705660     25.003819   0.000000   0.000000
   18       26.049485     26.414980   0.000000   0.000000
   19       29.540771     29.597314   0.000000   0.000000
   20       30.756560     31.479846   0.000000   0.000000
   21       30.891069     31.590310   0.000000   0.000000
   22       32.729207     33.040406   0.000000   0.000000
   23       35.281109     35.704008   0.000000   0.000000
   24       38.939340     39.451447   0.000000   0.000000
   25       39.572598     39.941103   0.000000   0.000000
   26       40.961876     41.088185   0.000000   0.000000
   27       43.729769     44.247112   0.000000   0.000000
   28       44.703926     45.492979   0.000000   0.000000
   29       45.495729     45.890866   0.000000   0.000000
   30       45.542491     46.002785   0.000000   0.000000
   31       46.932902     47.532848   0.000000   0.000000
   32       51.640295     52.397425   0.000000   0.000000
 
 -0.8333333E-01  0.8333333E-01  0.8333333E-01  0.9259259E-02
    1       -2.296384     -2.173660   1.000000   1.000000
    2        1.024621      2.830651   1.000000   1.000000
    3        1.024621      2.830651   1.000000   1.000000
    4        3.160369      5.065095   1.000000   1.011806
    5        3.160369      5.065095   1.000000   1.011806
    6        3.500554      5.449613   1.000000   0.457633
    7        4.384181      7.026625   1.000000  -0.000000
    8        4.384181      7.081297   1.000000  -0.000000
    9        4.969997      7.081297   1.002223  -0.000000
   10        5.448999      7.627787   0.460221  -0.000000
   11        5.448999      7.627787   0.460221  -0.000000
   12       14.562128     15.037186   0.000000   0.000000
   13       14.562128     15.037186   0.000000   0.000000
   14       15.163406     15.575316   0.000000   0.000000
   15       22.184794     22.904334   0.000000   0.000000
   16       22.184794     22.904335   0.000000   0.000000
   17       26.913481     27.942253   0.000000   0.000000
   18       28.342058     28.332019   0.000000   0.000000
   19       28.342058     28.332019   0.000000   0.000000
   20       30.673161     30.363212   0.000000   0.000000
   21       32.739983     33.580870   0.000000   0.000000
   22       35.298129     35.582560   0.000000   0.000000
   23       35.298129     35.582560   0.000000   0.000000
   24       36.775078     37.380983   0.000000   0.000000
   25       36.775078     37.380983   0.000000   0.000000
   26       41.079517     41.898937   0.000000   0.000000
   27       41.406225     42.141853   0.000000   0.000000
   28       41.406225     42.141853   0.000000   0.000000
   29       42.701322     42.964840   0.000000   0.000000
   30       48.339691     48.848090   0.000000   0.000000
   31       50.325331     50.967905   0.000000   0.000000
   32       50.325331     50.967905   0.000000   0.000000
 
  0.8333333E-01  0.2500000E+00  0.8333333E-01  0.9259259E-02
    1       -1.255544     -1.110408   1.000000   1.000000
    2        1.406060      3.043112   1.000000   1.000000
    3        1.437751      3.321212   1.000000   1.000000
    4        3.046092      4.902849   1.000000   1.000490
    5        3.098731      4.980793   1.000000   1.002765
    6        3.936658      5.922042   1.000000  -0.001698
    7        4.043116      6.075420   1.000000  -0.000033
    8        4.169848      6.599947   1.000000  -0.000000
    9        4.582353      6.790728   1.000000  -0.000000
   10        4.766658      7.317478   1.000011  -0.000000
   11        5.388224      7.568123   0.709589  -0.000000
   12       10.577738     11.535706  -0.000000   0.000000
   13       16.218059     16.871192   0.000000   0.000000
   14       16.618114     17.172177   0.000000   0.000000
   15       22.779804     23.398348   0.000000   0.000000
   16       24.361629     24.887766   0.000000   0.000000
   17       24.705660     25.003819   0.000000   0.000000
   18       26.049485     26.414980   0.000000   0.000000
   19       29.540771     29.597314   0.000000   0.000000
   20       30.756560     31.479846   0.000000   0.000000
   21       30.891069     31.590310   0.000000   0.000000
   22       32.729207     33.040406   0.000000   0.000000
   23       35.281109     35.704008   0.000000   0.000000
   24       38.939340     39.451447   0.000000   0.000000
   25       39.572598     39.941103   0.000000   0.000000
   26       40.961876     41.088186   0.000000   0.000000
   27       43.729769     44.247112   0.000000   0.000000
   28       44.703926     45.492979   0.000000   0.000000
   29       45.495728     45.890866   0.000000   0.000000
   30       45.542491     46.002785   0.000000   0.000000
   31       46.932902     47.532848   0.000000   0.000000
   32       51.640295     52.397425   0.000000   0.000000
 
  0.2500000E+00  0.2500000E+00  0.8333333E-01  0.9259259E-02
    1       -0.375400     -0.159366   1.000000   1.000000
    2        1.524500      3.219543   1.000000   1.000000
    3        1.966592      3.666618   1.000000   1.000000
    4        2.686208      4.491793   1.000000   1.000000
    5        2.987239      4.744336   1.000000   1.000005
    6        3.358523      5.164551   1.000000   1.032640
    7        4.280140      6.483559   1.000000  -0.000000
    8        4.419183      6.636119   1.000000  -0.000000
    9        4.485646      6.848560   1.000000  -0.000000
   10        4.608349      7.209344   1.000000  -0.000000
   11        5.547056      7.757261   0.110083  -0.000000
   12       10.803715     11.778342  -0.000000   0.000000
   13       13.214127     14.241491   0.000000   0.000000
   14       17.680361     18.289254   0.000000   0.000000
   15       21.097255     21.678472   0.000000   0.000000
   16       23.927866     24.397833   0.000000   0.000000
   17       25.232603     25.436123   0.000000   0.000000
   18       27.638043     28.340027   0.000000   0.000000
   19       28.184128     28.443148   0.000000   0.000000
   20       30.451432     30.484575   0.000000   0.000000
   21       32.096790     32.864799   0.000000   0.000000
   22       34.103957     34.664944   0.000000   0.000000
   23       36.263398     36.460198   0.000000   0.000000
   24       36.354840     36.868377   0.000000   0.000000
   25       39.170907     39.453570   0.000000   0.000000
   26       41.793748     42.211903   0.000000   0.000000
   27       42.111764     42.480960   0.000000   0.000000
   28       45.786455     46.352914   0.000000   0.000000
   29       48.182315     48.804802   0.000000   0.000000
   30       50.007780     50.480225   0.000000   0.000000
   31       50.058119     50.557202   0.000000   0.000000
   32       51.996200     52.536251   0.000000   0.000000
 
  0.4166667E+00  0.2500000E+00  0.8333333E-01  0.9259259E-02
    1        0.747274      1.345329   1.000000   1.000000
    2        1.377831      2.634923   1.000000   1.000000
    3        2.564232      4.251876   1.000000   1.000000
    4        2.565432      4.333265   1.000000   1.000000
    5        2.946200      4.667671   1.000000   1.000000
    6        3.119666      4.684220   1.000000   1.000001
    7        4.189708      6.432536   1.000000  -0.000000
    8        4.245032      6.633018   1.000000  -0.000000
    9        4.796235      7.280930   1.000026  -0.000000
   10        5.367567      7.600932   0.783941  -0.000000
   11        5.494676      7.652714   0.276410  -0.000000
   12        7.700390      9.228539  -0.000000  -0.000000
   13       14.724610     15.703397   0.000000   0.000000
   14       17.542318     18.340915   0.000000   0.000000
   15       19.833164     20.417138   0.000000   0.000000
   16       22.599803     23.031052   0.000000   0.000000
   17       25.040903     25.375333   0.000000   0.000000
   18       26.553336     26.920185   0.000000   0.000000
   19       29.943463     30.308277   0.000000   0.000000
   20       30.335605     30.654147   0.000000   0.000000
   21       32.640319     33.007226   0.000000   0.000000
   22       33.786008     34.140528   0.000000   0.000000
   23       35.733073     36.087551   0.000000   0.000000
   24       37.204470     37.695251   0.000000   0.000000
   25       40.076839     40.718887   0.000000   0.000000
   26       43.429920     43.637285   0.000000   0.000000
   27       45.070628     45.477276   0.000000   0.000000
   28       47.353619     47.868804   0.000000   0.000000
   29       47.678315     48.047402   0.000000   0.000000
   30       51.164975     51.925123   0.000000   0.000000
   31       51.774696     52.364035   0.000000   0.000000
   32       52.464431     52.676196   0.000000   0.000000
 
 -0.4166667E+00  0.2500000E+00  0.8333333E-01  0.9259259E-02
    1        0.747274      1.345329   1.000000   1.000000
    2        1.377831      2.634923   1.000000   1.000000
    3        2.564232      4.251876   1.000000   1.000000
    4        2.565432      4.333265   1.000000   1.000000
    5        2.946200      4.667671   1.000000   1.000000
    6        3.119666      4.684220   1.000000   1.000001
    7        4.189708      6.432536   1.000000  -0.000000
    8        4.245032      6.633018   1.000000  -0.000000
    9        4.796235      7.280930   1.000026  -0.000000
   10        5.367567      7.600932   0.783941  -0.000000
   11        5.494676      7.652714   0.276410  -0.000000
   12        7.700390      9.228539  -0.000000  -0.000000
   13       14.724610     15.703397   0.000000   0.000000
   14       17.542318     18.340915   0.000000   0.000000
   15       19.833164     20.417138   0.000000   0.000000
   16       22.599803     23.031052   0.000000   0.000000
   17       25.040903     25.375333   0.000000   0.000000
   18       26.553336     26.920185   0.000000   0.000000
   19       29.943463     30.308277   0.000000   0.000000
   20       30.335605     30.654147   0.000000   0.000000
   21       32.640319     33.007226   0.000000   0.000000
   22       33.786008     34.140528   0.000000   0.000000
   23       35.733073     36.087551   0.000000   0.000000
   24       37.204470     37.695251   0.000000   0.000000
   25       40.076839     40.718887   0.000000   0.000000
   26       43.429920     43.637285   0.000000   0.000000
   27       45.070628     45.477276   0.000000   0.000000
   28       47.353619     47.868804   0.000000   0.000000
   29       47.678315     48.047402   0.000000   0.000000
   30       51.164975     51.925123   0.000000   0.000000
   31       51.774696     52.364035   0.000000   0.000000
   32       52.464431     52.676196   0.000000   0.000000
 
 -0.2500000E+00  0.2500000E+00  0.8333333E-01  0.9259259E-02
    1       -0.375400     -0.159366   1.000000   1.000000
    2        1.524500      3.219543   1.000000   1.000000
    3        1.966592      3.666618   1.000000   1.000000
    4        2.686208      4.491793   1.000000   1.000000
    5        2.987239      4.744336   1.000000   1.000005
    6        3.358523      5.164551   1.000000   1.032640
    7        4.280140      6.483559   1.000000  -0.000000
    8        4.419183      6.636119   1.000000  -0.000000
    9        4.485646      6.848560   1.000000  -0.000000
   10        4.608349      7.209344   1.000000  -0.000000
   11        5.547056      7.757261   0.110083  -0.000000
   12       10.803715     11.778342  -0.000000   0.000000
   13       13.214127     14.241491   0.000000   0.000000
   14       17.680361     18.289254   0.000000   0.000000
   15       21.097255     21.678472   0.000000   0.000000
   16       23.927866     24.397833   0.000000   0.000000
   17       25.232603     25.436123   0.000000   0.000000
   18       27.638043     28.340027   0.000000   0.000000
   19       28.184128     28.443148   0.000000   0.000000
   20       30.451432     30.484575   0.000000   0.000000
   21       32.096790     32.864799   0.000000   0.000000
   22       34.103957     34.664944   0.000000   0.000000
   23       36.263398     36.460198   0.000000   0.000000
   24       36.354840     36.868377   0.000000   0.000000
   25       39.170907     39.453570   0.000000   0.000000
   26       41.793748     42.211903   0.000000   0.000000
   27       42.111764     42.480960   0.000000   0.000000
   28       45.786455     46.352914   0.000000   0.000000
   29       48.182315     48.804802   0.000000   0.000000
   30       50.007780     50.480225   0.000000   0.000000
   31       50.058119     50.557202   0.000000   0.000000
   32       51.996200     52.536251   0.000000   0.000000
 
 -0.8333333E-01  0.2500000E+00  0.8333333E-01  0.9259259E-02
    1       -1.255544     -1.110408   1.000000   1.000000
    2        1.406060      3.043112   1.000000   1.000000
    3        1.437751      3.321212   1.000000   1.000000
    4        3.046092      4.902849   1.000000   1.000490
    5        3.098731      4.980793   1.000000   1.002765
    6        3.936658      5.922042   1.000000  -0.001698
    7        4.043116      6.075420   1.000000  -0.000033
    8        4.169848      6.599947   1.000000  -0.000000
    9        4.582353      6.790728   1.000000  -0.000000
   10        4.766658      7.317478   1.000011  -0.000000
   11        5.388224      7.568123   0.709589  -0.000000
   12       10.577738     11.535706  -0.000000   0.000000
   13       16.218059     16.871192   0.000000   0.000000
   14       16.618114     17.172177   0.000000   0.000000
   15       22.779804     23.398348   0.000000   0.000000
   16       24.361629     24.887766   0.000000   0.000000
   17       24.705660     25.003819   0.000000   0.000000
   18       26.049485     26.414980   0.000000   0.000000
   19       29.540771     29.597314   0.000000   0.000000
   20       30.756560     31.479846   0.000000   0.000000
   21       30.891069     31.590310   0.000000   0.000000
   22       32.729207     33.040406   0.000000   0.000000
   23       35.281109     35.704008   0.000000   0.000000
   24       38.939340     39.451447   0.000000   0.000000
   25       39.572598     39.941103   0.000000   0.000000
   26       40.961876     41.088186   0.000000   0.000000
   27       43.729769     44.247112   0.000000   0.000000
   28       44.703926     45.492979   0.000000   0.000000
   29       45.495728     45.890866   0.000000   0.000000
   30       45.542492     46.002785   0.000000   0.000000
   31       46.932902     47.532848   0.000000   0.000000
   32       51.640295     52.397425   0.000000   0.000000
 
  0.8333333E-01  0.4166667E+00  0.8333333E-01  0.9259259E-02
    1        0.397906      0.722601   1.000000   1.000000
    2        1.494922      2.488225   1.000000   1.000000
    3        2.141828      4.144717   1.000000   1.000000
    4        2.842112      4.815753   1.000000   1.000047
    5        3.204180      5.010972   1.000000   1.004901
    6        3.544786      5.405623   1.000000   0.641440
    7        3.734578      5.952911   1.000000  -0.000855
    8        4.047869      6.025649   1.000000  -0.000137
    9        4.476057      6.540600   1.000000  -0.000000
   10        4.975307      7.123483   1.002477  -0.000000
   11        5.104474      7.683516   1.019624  -0.000000
   12        6.997372      8.755579  -0.000000  -0.000000
   13       18.732511     19.456892   0.000000   0.000000
   14       19.197444     19.812807   0.000000   0.000000
   15       21.550318     22.129146   0.000000   0.000000
   16       22.415965     22.973169   0.000000   0.000000
   17       24.175409     24.638831   0.000000   0.000000
   18       25.792799     26.223358   0.000000   0.000000
   19       26.583433     26.915523   0.000000   0.000000
   20       28.106275     28.524541   0.000000   0.000000
   21       33.812475     34.198244   0.000000   0.000000
   22       35.944797     36.384203   0.000000   0.000000
   23       37.517423     37.791800   0.000000   0.000000
   24       37.945569     38.569835   0.000000   0.000000
   25       40.379981     40.823096   0.000000   0.000000
   26       41.162660     41.505770   0.000000   0.000000
   27       42.712304     43.106874   0.000000   0.000000
   28       44.613889     45.058776   0.000000   0.000000
   29       46.930225     47.636383   0.000000   0.000000
   30       47.905177     48.074164   0.000000   0.000000
   31       49.054188     49.595108   0.000000   0.000000
   32       51.246584     51.966232   0.000000   0.000000
 
  0.2500000E+00  0.4166667E+00  0.8333333E-01  0.9259259E-02
    1        0.747274      1.345329   1.000000   1.000000
    2        1.377831      2.634923   1.000000   1.000000
    3        2.564232      4.251876   1.000000   1.000000
    4        2.565432      4.333265   1.000000   1.000000
    5        2.946200      4.667671   1.000000   1.000000
    6        3.119666      4.684220   1.000000   1.000001
    7        4.189708      6.432536   1.000000  -0.000000
    8        4.245032      6.633018   1.000000  -0.000000
    9        4.796235      7.280930   1.000026  -0.000000
   10        5.367567      7.600932   0.783941  -0.000000
   11        5.494676      7.652714   0.276410  -0.000000
   12        7.700390      9.228539  -0.000000  -0.000000
   13       14.724610     15.703397   0.000000   0.000000
   14       17.542318     18.340915   0.000000   0.000000
   15       19.833164     20.417138   0.000000   0.000000
   16       22.599803     23.031052   0.000000   0.000000
   17       25.040903     25.375333   0.000000   0.000000
   18       26.553336     26.920185   0.000000   0.000000
   19       29.943463     30.308277   0.000000   0.000000
   20       30.335605     30.654147   0.000000   0.000000
   21       32.640319     33.007226   0.000000   0.000000
   22       33.786008     34.140528   0.000000   0.000000
   23       35.733073     36.087551   0.000000   0.000000
   24       37.204470     37.695251   0.000000   0.000000
   25       40.076839     40.718887   0.000000   0.000000
   26       43.429920     43.637285   0.000000   0.000000
   27       45.070628     45.477276   0.000000   0.000000
   28       47.353619     47.868804   0.000000   0.000000
   29       47.678315     48.047402   0.000000   0.000000
   30       51.164975     51.925123   0.000000   0.000000
   31       51.774696     52.364035   0.000000   0.000000
   32       52.464431     52.676196   0.000000   0.000000
 
  0.4166667E+00  0.4166667E+00  0.8333333E-01  0.9259259E-02
    1        0.837151      1.936055   1.000000   1.000000
    2        1.001090      2.316311   1.000000   1.000000
    3        2.266147      3.985841   1.000000   1.000000
    4        2.358174      4.078840   1.000000   1.000000
    5        3.758998      5.242686   1.000000   1.023443
    6        4.343802      5.298565   1.000000   0.961644
    7        4.381120      6.840782   1.000000  -0.000000
    8        4.586347      6.992645   1.000000  -0.000000
    9        4.587757      7.356729   1.000000  -0.000000
   10        5.438959      7.693601   0.502654  -0.000000
   11        6.297057      8.140325  -0.000000  -0.000000
   12        7.604736      8.923057  -0.000000  -0.000000
   13       12.675930     13.978854   0.000000   0.000000
   14       14.172608     15.264866   0.000000   0.000000
   15       21.413197     21.833301   0.000000   0.000000
   16       23.085043     23.248839   0.000000   0.000000
   17       24.720912     25.300139   0.000000   0.000000
   18       25.022512     25.322871   0.000000   0.000000
   19       29.714420     30.015557   0.000000   0.000000
   20       29.842554     30.289684   0.000000   0.000000
   21       33.428766     33.994940   0.000000   0.000000
   22       34.620440     35.133167   0.000000   0.000000
   23       36.333979     36.371244   0.000000   0.000000
   24       39.745949     39.787707   0.000000   0.000000
   25       41.164473     41.392242   0.000000   0.000000
   26       42.544019     43.338912   0.000000   0.000000
   27       47.693393     47.690873   0.000000   0.000000
   28       47.887209     48.487863   0.000000   0.000000
   29       50.442286     50.693135   0.000000   0.000000
   30       50.554836     51.342509   0.000000   0.000000
   31       53.094267     54.061646   0.000000   0.000000
   32       54.020416     54.441312   0.000000   0.000000
 
 -0.4166667E+00  0.4166667E+00  0.8333333E-01  0.9259259E-02
    1        0.837151      1.936055   1.000000   1.000000
    2        1.001090      2.316311   1.000000   1.000000
    3        2.266147      3.985841   1.000000   1.000000
    4        2.358174      4.078840   1.000000   1.000000
    5        3.758998      5.242686   1.000000   1.023443
    6        4.343802      5.298565   1.000000   0.961644
    7        4.381120      6.840782   1.000000  -0.000000
    8        4.586347      6.992645   1.000000  -0.000000
    9        4.587757      7.356729   1.000000  -0.000000
   10        5.438959      7.693601   0.502654  -0.000000
   11        6.297057      8.140325  -0.000000  -0.000000
   12        7.604736      8.923057  -0.000000  -0.000000
   13       12.675930     13.978854   0.000000   0.000000
   14       14.172608     15.264866   0.000000   0.000000
   15       21.413197     21.833301   0.000000   0.000000
   16       23.085043     23.248839   0.000000   0.000000