       N       E                     dE             d eps       ncg     rms          rms(c)
DAV:   1     0.134368783732E+01    0.13437E+01   -0.94778E+03 13824   0.720E+02
DAV:   2    -0.184705139911E+02   -0.19814E+02   -0.19537E+02 19296   0.547E+01
DAV:   3    -0.184932242375E+02   -0.22710E-01   -0.22686E-01 14976   0.229E+00
DAV:   4    -0.184932400507E+02   -0.15813E-04   -0.15814E-04 23808   0.376E-02
DAV:   5    -0.184932400511E+02   -0.38290E-09   -0.18302E-09 15424   0.978E-05    0.158E+01
DAV:   6    -0.164306707196E+02    0.20626E+01   -0.33421E+01 18944   0.352E+01    0.904E+00
DAV:   7    -0.163792535964E+02    0.51417E-01   -0.26542E+00 15488   0.885E+00    0.460E+00
DAV:   8    -0.164461404402E+02   -0.66887E-01   -0.14636E-01 21248   0.145E+00    0.242E+00
DAV:   9    -0.164344798270E+02    0.11661E-01   -0.28624E-02 19840   0.625E-01    0.129E+00
DAV:  10    -0.164355253728E+02   -0.10455E-02   -0.18688E-02 20480   0.615E-01    0.789E-01
DAV:  11    -0.164348842123E+02    0.64116E-03   -0.59338E-03 19072   0.421E-01    0.141E-01
DAV:  12    -0.164348419869E+02    0.42225E-04   -0.22323E-04 18336   0.711E-02    0.492E-02
DAV:  13    -0.164348431905E+02   -0.12037E-05   -0.59087E-05 11136   0.474E-02
   1 F= -.16434843E+02 E0= -.16428926E+02  d E =-.164348E+02  mag=     4.3319
