       N       E                     dE             d eps       ncg     rms          rms(c)
DAV:   1    -0.121073632893E+02   -0.12107E+02   -0.63489E+03 14784   0.415E+02
DAV:   2    -0.184826345136E+02   -0.63753E+01   -0.61922E+01 18464   0.299E+01
DAV:   3    -0.184891567299E+02   -0.65222E-02   -0.65189E-02 16992   0.963E-01
DAV:   4    -0.184891591203E+02   -0.23904E-05   -0.23912E-05 21664   0.968E-03
DAV:   5    -0.184891591210E+02   -0.70486E-09   -0.13905E-10 17376   0.230E-05    0.156E+01
DAV:   6    -0.164307819808E+02    0.20584E+01   -0.32892E+01 18560   0.325E+01    0.892E+00
DAV:   7    -0.163980792709E+02    0.32703E-01   -0.25670E+00 16384   0.805E+00    0.457E+00
DAV:   8    -0.164635833264E+02   -0.65504E-01   -0.15168E-01 21120   0.139E+00    0.246E+00
DAV:   9    -0.164522814964E+02    0.11302E-01   -0.25903E-02 20608   0.562E-01    0.131E+00
DAV:  10    -0.164538204039E+02   -0.15389E-02   -0.19550E-02 20864   0.562E-01    0.760E-01
DAV:  11    -0.164533962935E+02    0.42411E-03   -0.53561E-03 19072   0.360E-01    0.141E-01
DAV:  12    -0.164533764249E+02    0.19869E-04   -0.22378E-04 18816   0.656E-02    0.481E-02
DAV:  13    -0.164533761705E+02    0.25441E-06   -0.22125E-05 13568   0.251E-02
   1 F= -.16453376E+02 E0= -.16447528E+02  d E =-.164534E+02  mag=     4.3276
