       N       E                     dE             d eps       ncg     rms          rms(c)
DAV:   1    -0.921591459577E+01   -0.92159E+01   -0.68640E+03 14176   0.476E+02
DAV:   2    -0.184811543305E+02   -0.92652E+01   -0.90591E+01 19040   0.367E+01
DAV:   3    -0.184903490917E+02   -0.91948E-02   -0.91900E-02 15456   0.121E+00
DAV:   4    -0.184903560110E+02   -0.69193E-05   -0.69196E-05 23200   0.191E-02
DAV:   5    -0.184903560112E+02   -0.18940E-09   -0.20039E-10 15904   0.334E-05    0.157E+01
DAV:   6    -0.164284428124E+02    0.20619E+01   -0.33206E+01 18432   0.342E+01    0.905E+00
DAV:   7    -0.163884874669E+02    0.39955E-01   -0.26321E+00 16000   0.856E+00    0.461E+00
DAV:   8    -0.164547365467E+02   -0.66249E-01   -0.14872E-01 21248   0.144E+00    0.246E+00
DAV:   9    -0.164433032151E+02    0.11433E-01   -0.27551E-02 20480   0.598E-01    0.131E+00
DAV:  10    -0.164448346760E+02   -0.15315E-02   -0.19006E-02 20864   0.590E-01    0.783E-01
DAV:  11    -0.164443483649E+02    0.48631E-03   -0.54908E-03 19072   0.388E-01    0.146E-01
DAV:  12    -0.164443273447E+02    0.21020E-04   -0.23243E-04 18816   0.723E-02    0.494E-02
DAV:  13    -0.164443262870E+02    0.10577E-05   -0.14547E-05 14016   0.197E-02
   1 F= -.16444326E+02 E0= -.16438456E+02  d E =-.164443E+02  mag=     4.3300
