       N       E                     dE             d eps       ncg     rms          rms(c)
DAV:   1    -0.683534562613E+01   -0.68353E+01   -0.74890E+03 13920   0.531E+02
DAV:   2    -0.184800279783E+02   -0.11645E+02   -0.11386E+02 19392   0.414E+01
DAV:   3    -0.184917226423E+02   -0.11695E-01   -0.11685E-01 14880   0.145E+00
DAV:   4    -0.184917309613E+02   -0.83190E-05   -0.83189E-05 24256   0.231E-02
DAV:   5    -0.184917309605E+02    0.74874E-09   -0.31285E-10 15328   0.411E-05    0.158E+01
DAV:   6    -0.164214440404E+02    0.20703E+01   -0.33368E+01 18688   0.347E+01    0.904E+00
DAV:   7    -0.163795637896E+02    0.41880E-01   -0.26523E+00 16128   0.872E+00    0.460E+00
DAV:   8    -0.164461180162E+02   -0.66554E-01   -0.14729E-01 21248   0.145E+00    0.243E+00
DAV:   9    -0.164347850354E+02    0.11333E-01   -0.27989E-02 20608   0.609E-01    0.130E+00
DAV:  10    -0.164362522472E+02   -0.14672E-02   -0.18867E-02 20480   0.606E-01    0.790E-01
DAV:  11    -0.164357301871E+02    0.52206E-03   -0.57552E-03 19072   0.407E-01    0.146E-01
DAV:  12    -0.164357079008E+02    0.22286E-04   -0.24027E-04 18848   0.768E-02    0.492E-02
DAV:  13    -0.164357091781E+02   -0.12773E-05   -0.50470E-05 12608   0.430E-02
   1 F= -.16435709E+02 E0= -.16429808E+02  d E =-.164357E+02  mag=     4.3318
