       N       E                     dE             d eps       ncg     rms          rms(c)
DAV:   1    -0.480736344683E+01   -0.48074E+01   -0.79784E+03 13856   0.577E+02
DAV:   2    -0.184776398022E+02   -0.13670E+02   -0.13430E+02 19296   0.450E+01
DAV:   3    -0.184928089862E+02   -0.15169E-01   -0.15161E-01 14784   0.176E+00
DAV:   4    -0.184928214269E+02   -0.12441E-04   -0.12441E-04 23808   0.304E-02
DAV:   5    -0.184928214270E+02   -0.11119E-09   -0.66258E-10 15136   0.584E-05    0.158E+01
DAV:   6    -0.164211599755E+02    0.20717E+01   -0.33400E+01 18688   0.348E+01    0.903E+00
DAV:   7    -0.163787617615E+02    0.42398E-01   -0.26550E+00 15360   0.874E+00    0.460E+00
DAV:   8    -0.164453534649E+02   -0.66592E-01   -0.14723E-01 21248   0.145E+00    0.243E+00
DAV:   9    -0.164340491361E+02    0.11304E-01   -0.28064E-02 20608   0.611E-01    0.130E+00
DAV:  10    -0.164355007476E+02   -0.14516E-02   -0.18910E-02 20096   0.611E-01    0.791E-01
DAV:  11    -0.164349756254E+02    0.52512E-03   -0.58784E-03 19072   0.414E-01    0.146E-01
DAV:  12    -0.164349513630E+02    0.24262E-04   -0.24442E-04 19232   0.792E-02    0.489E-02
DAV:  13    -0.164349514575E+02   -0.94481E-07   -0.32173E-05 12608   0.337E-02
   1 F= -.16434951E+02 E0= -.16429038E+02  d E =-.164350E+02  mag=     4.3323
