       N       E                     dE             d eps       ncg     rms          rms(c)
DAV:   1    -0.258343762939E+01   -0.25834E+01   -0.84971E+03 13824   0.623E+02
DAV:   2    -0.184765135527E+02   -0.15893E+02   -0.15647E+02 19392   0.485E+01
DAV:   3    -0.184931945508E+02   -0.16681E-01   -0.16669E-01 14464   0.193E+00
DAV:   4    -0.184932095034E+02   -0.14953E-04   -0.14951E-04 24512   0.352E-02
DAV:   5    -0.184932095037E+02   -0.32946E-09   -0.80980E-10 14784   0.630E-05    0.158E+01
DAV:   6    -0.164313771307E+02    0.20618E+01   -0.33402E+01 18912   0.349E+01    0.903E+00
DAV:   7    -0.163802274902E+02    0.51150E-01   -0.26510E+00 15488   0.875E+00    0.460E+00
DAV:   8    -0.164470528706E+02   -0.66825E-01   -0.14631E-01 21184   0.143E+00    0.242E+00
DAV:   9    -0.164353817568E+02    0.11671E-01   -0.28541E-02 19904   0.618E-01    0.129E+00
DAV:  10    -0.164364433194E+02   -0.10616E-02   -0.18698E-02 20480   0.608E-01    0.790E-01
DAV:  11    -0.164357957055E+02    0.64761E-03   -0.59079E-03 19072   0.416E-01    0.141E-01
DAV:  12    -0.164357537050E+02    0.42000E-04   -0.22247E-04 17824   0.697E-02    0.492E-02
DAV:  13    -0.164357549254E+02   -0.12203E-05   -0.59088E-05 11808   0.469E-02
   1 F= -.16435755E+02 E0= -.16429840E+02  d E =-.164358E+02  mag=     4.3319
