 vasp.5.4.1 24Jun15 (build May 02 2016 14:41:14) complex                        
  
 executed on           IFC91_ompi date 2025.11.12  12:11:57
 running on   32 total cores
 distrk:  each k-point on   32 cores,    1 groups
 distr:  one band on NCORES_PER_BAND=   1 cores,   32 groups


--------------------------------------------------------------------------------------------------------


 INCAR:
 POTCAR:    PAW_PBE Fe 06Sep2000                  

 ----------------------------------------------------------------------------- 
|                                                                             |
|           W    W    AA    RRRRR   N    N  II  N    N   GGGG   !!!           |
|           W    W   A  A   R    R  NN   N  II  NN   N  G    G  !!!           |
|           W    W  A    A  R    R  N N  N  II  N N  N  G       !!!           |
|           W WW W  AAAAAA  RRRRR   N  N N  II  N  N N  G  GGG   !            |
|           WW  WW  A    A  R   R   N   NN  II  N   NN  G    G                |
|           W    W  A    A  R    R  N    N  II  N    N   GGGG   !!!           |
|                                                                             |
|      For optimal performance we recommend to set                            |
|        NCORE= 4 - approx SQRT( number of cores)                             |
|      NCORE specifies how many cores store one orbital (NPAR=cpu/NCORE).     |
|      This setting can  greatly improve the performance of VASP for DFT.     |
|      The default, NPAR=number of cores might be grossly inefficient         |
|      on modern multi-core architectures or massively parallel machines.     |
|      Do your own testing !!!!                                               |
|      Unfortunately you need to use the default for GW and RPA calculations. |
|      (for HF NCORE is supported but not extensively tested yet)             |
|                                                                             |
 ----------------------------------------------------------------------------- 

 POTCAR:    PAW_PBE Fe 06Sep2000                  
   VRHFIN =Fe:  d7 s1                                                           
   LEXCH  = PE                                                                  
   EATOM  =   594.3153 eV,   43.6809 Ry                                         
                                                                                
   TITEL  = PAW_PBE Fe 06Sep2000                                                
   LULTRA =        F    use ultrasoft PP ?                                      
   IUNSCR =        1    unscreen: 0-lin 1-nonlin 2-no                           
   RPACOR =    2.000    partial core radius                                     
   POMASS =   55.847; ZVAL   =    8.000    mass and valenz                      
   RCORE  =    2.300    outmost cutoff radius                                   
   RWIGS  =    2.460; RWIGS  =    1.302    wigner-seitz radius (au A)           
   ENMAX  =  267.882; ENMIN  =  200.911 eV                                      
   RCLOC  =    1.701    cutoff for local pot                                    
   LCOR   =        T    correct aug charges                                     
   LPAW   =        T    paw PP                                                  
   EAUG   =  511.368                                                            
   DEXC   =    0.000                                                            
   RMAX   =    2.356    core radius for proj-oper                               
   RAUG   =    1.300    factor for augmentation sphere                          
   RDEP   =    2.442    radius for radial grids                                 
   RDEPT  =    1.890    core radius for aug-charge                              
                                                                                
   Atomic configuration                                                         
    9 entries                                                                   
     n  l   j            E        occ.                                          
     1  0  0.50     -6993.8440   2.0000                                         
     2  0  0.50      -814.6047   2.0000                                         
     2  1  1.50      -693.3689   6.0000                                         
     3  0  0.50       -89.4732   2.0000                                         
     3  1  1.50       -55.6373   6.0000                                         
     3  2  2.50        -3.8151   7.0000                                         
     4  0  0.50        -4.2551   1.0000                                         
     4  1  1.50        -3.4015   0.0000                                         
     4  3  2.50        -1.3606   0.0000                                         
   Description                                                                  
     l       E           TYP  RCUT    TYP  RCUT                                 
     2     -3.8151135     23  2.300                                             
     2     -5.1756961     23  2.300                                             
     0     -4.2550963     23  2.300                                             
     0      7.2035603     23  2.300                                             
     1     -2.7211652     23  2.300                                             
     1     18.4316424     23  2.300                                             
  local pseudopotential read in
  partial core-charges read in
  partial kinetic energy density read in
  atomic valenz-charges read in
  non local Contribution for L=           2  read in
    real space projection operators read in
  non local Contribution for L=           2  read in
    real space projection operators read in
  non local Contribution for L=           0  read in
    real space projection operators read in
  non local Contribution for L=           0  read in
    real space projection operators read in
  non local Contribution for L=           1  read in
    real space projection operators read in
  non local Contribution for L=           1  read in
    real space projection operators read in
    PAW grid and wavefunctions read in
 
   number of l-projection  operators is LMAX  =           6
   number of lm-projection operators is LMMAX =          18
 
  PAW_PBE Fe 06Sep2000                  :
 energy of atom  1       EATOM= -594.3153
 kinetic energy error for atom=    0.0205 (will be added to EATOM!!)
 
 
 POSCAR: BCC Fe                                  
  positions in cartesian coordinates
  No initial velocities read in
 exchange correlation table for  LEXCH =        8
   RHO(1)=    0.500       N(1)  =     2000
   RHO(2)=  100.500       N(2)  =     4000
 


--------------------------------------------------------------------------------------------------------


 ion  position               nearest neighbor table
   1  0.000  0.000  0.000-   2 2.48   2 2.48   2 2.48   2 2.48   2 2.48   2 2.48   2 2.48   2 2.48

   2  0.500  0.500  0.500-   1 2.48   1 2.48   1 2.48   1 2.48   1 2.48   1 2.48   1 2.48   1 2.48

 

IMPORTANT INFORMATION: All symmetrisations will be switched off!
NOSYMM: (Re-)initialisation of all symmetry stuff for point group C_1.

 
 
 KPOINTS: Automatic mesh                          

Automatic generation of k-mesh.
Space group operators:
 irot       det(A)        alpha          n_x          n_y          n_z        tau_x        tau_y        tau_z
    1     1.000000     0.000001     1.000000     0.000000     0.000000     0.000000     0.000000     0.000000
 
 Subroutine IBZKPT returns following result:
 ===========================================
 
 Found    108 irreducible k-points:
 
 Following reciprocal coordinates:
            Coordinates               Weight
  0.083333  0.083333  0.083333      2.000000
  0.250000  0.083333  0.083333      2.000000
  0.416667  0.083333  0.083333      2.000000
 -0.416667  0.083333  0.083333      2.000000
 -0.250000  0.083333  0.083333      2.000000
 -0.083333  0.083333  0.083333      2.000000
  0.083333  0.250000  0.083333      2.000000
  0.250000  0.250000  0.083333      2.000000
  0.416667  0.250000  0.083333      2.000000
 -0.416667  0.250000  0.083333      2.000000
 -0.250000  0.250000  0.083333      2.000000
 -0.083333  0.250000  0.083333      2.000000
  0.083333  0.416667  0.083333      2.000000
  0.250000  0.416667  0.083333      2.000000
  0.416667  0.416667  0.083333      2.000000
 -0.416667  0.416667  0.083333      2.000000
 -0.250000  0.416667  0.083333      2.000000
 -0.083333  0.416667  0.083333      2.000000
  0.083333 -0.416667  0.083333      2.000000
  0.250000 -0.416667  0.083333      2.000000
  0.416667 -0.416667  0.083333      2.000000
 -0.416667 -0.416667  0.083333      2.000000
 -0.250000 -0.416667  0.083333      2.000000
 -0.083333 -0.416667  0.083333      2.000000
  0.083333 -0.250000  0.083333      2.000000
  0.250000 -0.250000  0.083333      2.000000
  0.416667 -0.250000  0.083333      2.000000
 -0.416667 -0.250000  0.083333      2.000000
 -0.250000 -0.250000  0.083333      2.000000
 -0.083333 -0.250000  0.083333      2.000000
  0.083333 -0.083333  0.083333      2.000000
  0.250000 -0.083333  0.083333      2.000000
  0.416667 -0.083333  0.083333      2.000000
 -0.416667 -0.083333  0.083333      2.000000
 -0.250000 -0.083333  0.083333      2.000000
 -0.083333 -0.083333  0.083333      2.000000
  0.083333  0.083333  0.250000      2.000000
  0.250000  0.083333  0.250000      2.000000
  0.416667  0.083333  0.250000      2.000000
 -0.416667  0.083333  0.250000      2.000000
 -0.250000  0.083333  0.250000      2.000000
 -0.083333  0.083333  0.250000      2.000000
  0.083333  0.250000  0.250000      2.000000
  0.250000  0.250000  0.250000      2.000000
  0.416667  0.250000  0.250000      2.000000
 -0.416667  0.250000  0.250000      2.000000
 -0.250000  0.250000  0.250000      2.000000
 -0.083333  0.250000  0.250000      2.000000
  0.083333  0.416667  0.250000      2.000000
  0.250000  0.416667  0.250000      2.000000
  0.416667  0.416667  0.250000      2.000000
 -0.416667  0.416667  0.250000      2.000000
 -0.250000  0.416667  0.250000      2.000000
 -0.083333  0.416667  0.250000      2.000000
  0.083333 -0.416667  0.250000      2.000000
  0.250000 -0.416667  0.250000      2.000000
  0.416667 -0.416667  0.250000      2.000000
 -0.416667 -0.416667  0.250000      2.000000
 -0.250000 -0.416667  0.250000      2.000000
 -0.083333 -0.416667  0.250000      2.000000
  0.083333 -0.250000  0.250000      2.000000
  0.250000 -0.250000  0.250000      2.000000
  0.416667 -0.250000  0.250000      2.000000
 -0.416667 -0.250000  0.250000      2.000000
 -0.250000 -0.250000  0.250000      2.000000
 -0.083333 -0.250000  0.250000      2.000000
  0.083333 -0.083333  0.250000      2.000000
  0.250000 -0.083333  0.250000      2.000000
  0.416667 -0.083333  0.250000      2.000000
 -0.416667 -0.083333  0.250000      2.000000
 -0.250000 -0.083333  0.250000      2.000000
 -0.083333 -0.083333  0.250000      2.000000
  0.083333  0.083333  0.416667      2.000000
  0.250000  0.083333  0.416667      2.000000
  0.416667  0.083333  0.416667      2.000000
 -0.416667  0.083333  0.416667      2.000000
 -0.250000  0.083333  0.416667      2.000000
 -0.083333  0.083333  0.416667      2.000000
  0.083333  0.250000  0.416667      2.000000
  0.250000  0.250000  0.416667      2.000000
  0.416667  0.250000  0.416667      2.000000
 -0.416667  0.250000  0.416667      2.000000
 -0.250000  0.250000  0.416667      2.000000
 -0.083333  0.250000  0.416667      2.000000
  0.083333  0.416667  0.416667      2.000000
  0.250000  0.416667  0.416667      2.000000
  0.416667  0.416667  0.416667      2.000000
 -0.416667  0.416667  0.416667      2.000000
 -0.250000  0.416667  0.416667      2.000000
 -0.083333  0.416667  0.416667      2.000000
  0.083333 -0.416667  0.416667      2.000000
  0.250000 -0.416667  0.416667      2.000000
  0.416667 -0.416667  0.416667      2.000000
 -0.416667 -0.416667  0.416667      2.000000
 -0.250000 -0.416667  0.416667      2.000000
 -0.083333 -0.416667  0.416667      2.000000
  0.083333 -0.250000  0.416667      2.000000
  0.250000 -0.250000  0.416667      2.000000
  0.416667 -0.250000  0.416667      2.000000
 -0.416667 -0.250000  0.416667      2.000000
 -0.250000 -0.250000  0.416667      2.000000
 -0.083333 -0.250000  0.416667      2.000000
  0.083333 -0.083333  0.416667      2.000000
  0.250000 -0.083333  0.416667      2.000000
  0.416667 -0.083333  0.416667      2.000000
 -0.416667 -0.083333  0.416667      2.000000
 -0.250000 -0.083333  0.416667      2.000000
 -0.083333 -0.083333  0.416667      2.000000
 
 Following cartesian coordinates:
            Coordinates               Weight
  0.083333  0.083333  0.083333      2.000000
  0.250000  0.083333  0.083333      2.000000
  0.416667  0.083333  0.083333      2.000000
 -0.416667  0.083333  0.083333      2.000000
 -0.250000  0.083333  0.083333      2.000000
 -0.083333  0.083333  0.083333      2.000000
  0.083333  0.250000  0.083333      2.000000
  0.250000  0.250000  0.083333      2.000000
  0.416667  0.250000  0.083333      2.000000
 -0.416667  0.250000  0.083333      2.000000
 -0.250000  0.250000  0.083333      2.000000
 -0.083333  0.250000  0.083333      2.000000
  0.083333  0.416667  0.083333      2.000000
  0.250000  0.416667  0.083333      2.000000
  0.416667  0.416667  0.083333      2.000000
 -0.416667  0.416667  0.083333      2.000000
 -0.250000  0.416667  0.083333      2.000000
 -0.083333  0.416667  0.083333      2.000000
  0.083333 -0.416667  0.083333      2.000000
  0.250000 -0.416667  0.083333      2.000000
  0.416667 -0.416667  0.083333      2.000000
 -0.416667 -0.416667  0.083333      2.000000
 -0.250000 -0.416667  0.083333      2.000000
 -0.083333 -0.416667  0.083333      2.000000
  0.083333 -0.250000  0.083333      2.000000
  0.250000 -0.250000  0.083333      2.000000
  0.416667 -0.250000  0.083333      2.000000
 -0.416667 -0.250000  0.083333      2.000000
 -0.250000 -0.250000  0.083333      2.000000
 -0.083333 -0.250000  0.083333      2.000000
  0.083333 -0.083333  0.083333      2.000000
  0.250000 -0.083333  0.083333      2.000000
  0.416667 -0.083333  0.083333      2.000000
 -0.416667 -0.083333  0.083333      2.000000
 -0.250000 -0.083333  0.083333      2.000000
 -0.083333 -0.083333  0.083333      2.000000
  0.083333  0.083333  0.250000      2.000000
  0.250000  0.083333  0.250000      2.000000
  0.416667  0.083333  0.250000      2.000000
 -0.416667  0.083333  0.250000      2.000000
 -0.250000  0.083333  0.250000      2.000000
 -0.083333  0.083333  0.250000      2.000000
  0.083333  0.250000  0.250000      2.000000
  0.250000  0.250000  0.250000      2.000000
  0.416667  0.250000  0.250000      2.000000
 -0.416667  0.250000  0.250000      2.000000
 -0.250000  0.250000  0.250000      2.000000
 -0.083333  0.250000  0.250000      2.000000
  0.083333  0.416667  0.250000      2.000000
  0.250000  0.416667  0.250000      2.000000
  0.416667  0.416667  0.250000      2.000000
 -0.416667  0.416667  0.250000      2.000000
 -0.250000  0.416667  0.250000      2.000000
 -0.083333  0.416667  0.250000      2.000000
  0.083333 -0.416667  0.250000      2.000000
  0.250000 -0.416667  0.250000      2.000000
  0.416667 -0.416667  0.250000      2.000000
 -0.416667 -0.416667  0.250000      2.000000
 -0.250000 -0.416667  0.250000      2.000000
 -0.083333 -0.416667  0.250000      2.000000
  0.083333 -0.250000  0.250000      2.000000
  0.250000 -0.250000  0.250000      2.000000
  0.416667 -0.250000  0.250000      2.000000
 -0.416667 -0.250000  0.250000      2.000000
 -0.250000 -0.250000  0.250000      2.000000
 -0.083333 -0.250000  0.250000      2.000000
  0.083333 -0.083333  0.250000      2.000000
  0.250000 -0.083333  0.250000      2.000000
  0.416667 -0.083333  0.250000      2.000000
 -0.416667 -0.083333  0.250000      2.000000
 -0.250000 -0.083333  0.250000      2.000000
 -0.083333 -0.083333  0.250000      2.000000
  0.083333  0.083333  0.416667      2.000000
  0.250000  0.083333  0.416667      2.000000
  0.416667  0.083333  0.416667      2.000000
 -0.416667  0.083333  0.416667      2.000000
 -0.250000  0.083333  0.416667      2.000000
 -0.083333  0.083333  0.416667      2.000000
  0.083333  0.250000  0.416667      2.000000
  0.250000  0.250000  0.416667      2.000000
  0.416667  0.250000  0.416667      2.000000
 -0.416667  0.250000  0.416667      2.000000
 -0.250000  0.250000  0.416667      2.000000
 -0.083333  0.250000  0.416667      2.000000
  0.083333  0.416667  0.416667      2.000000
  0.250000  0.416667  0.416667      2.000000
  0.416667  0.416667  0.416667      2.000000
 -0.416667  0.416667  0.416667      2.000000
 -0.250000  0.416667  0.416667      2.000000
 -0.083333  0.416667  0.416667      2.000000
  0.083333 -0.416667  0.416667      2.000000
  0.250000 -0.416667  0.416667      2.000000
  0.416667 -0.416667  0.416667      2.000000
 -0.416667 -0.416667  0.416667      2.000000
 -0.250000 -0.416667  0.416667      2.000000
 -0.083333 -0.416667  0.416667      2.000000
  0.083333 -0.250000  0.416667      2.000000
  0.250000 -0.250000  0.416667      2.000000
  0.416667 -0.250000  0.416667      2.000000
 -0.416667 -0.250000  0.416667      2.000000
 -0.250000 -0.250000  0.416667      2.000000
 -0.083333 -0.250000  0.416667      2.000000
  0.083333 -0.083333  0.416667      2.000000
  0.250000 -0.083333  0.416667      2.000000
  0.416667 -0.083333  0.416667      2.000000
 -0.416667 -0.083333  0.416667      2.000000
 -0.250000 -0.083333  0.416667      2.000000
 -0.083333 -0.083333  0.416667      2.000000
 


--------------------------------------------------------------------------------------------------------




 Dimension of arrays:
   k-points           NKPTS =    108   k-points in BZ     NKDIM =    108   number of bands    NBANDS=     32
   number of dos      NEDOS =    301   number of ions     NIONS =      2
   non local maximal  LDIM  =      6   non local SUM 2l+1 LMDIM =     18
   total plane-waves  NPLWV =   2744
   max r-space proj   IRMAX =      1   max aug-charges    IRDMAX=   4377
   dimension x,y,z NGX =    14 NGY =   14 NGZ =   14
   dimension x,y,z NGXF=    28 NGYF=   28 NGZF=   28
   support grid    NGXF=    28 NGYF=   28 NGZF=   28
   ions per type =               2
 NGX,Y,Z   is equivalent  to a cutoff of   8.14,  8.14,  8.14 a.u.
 NGXF,Y,Z  is equivalent  to a cutoff of  16.28, 16.28, 16.28 a.u.


 I would recommend the setting:
   dimension x,y,z NGX =    13 NGY =   13 NGZ =   13
 SYSTEM =  Fe Bulk                                 
 POSCAR =  BCC Fe                                  

 Startparameter for this run:
   NWRITE =      2    write-flag & timer
   PREC   = normal    normal or accurate (medium, high low for compatibility)
   ISTART =      0    job   : 0-new  1-cont  2-samecut
   ICHARG =      2    charge: 1-file 2-atom 10-const
   ISPIN  =      2    spin polarized calculation?
   LNONCOLLINEAR =      F non collinear calculations
   LSORBIT =      F    spin-orbit coupling
   INIWAV =      1    electr: 0-lowe 1-rand  2-diag
   LASPH  =      F    aspherical Exc in radial PAW
   METAGGA=      F    non-selfconsistent MetaGGA calc.

 Electronic Relaxation 1
   ENCUT  =  350.0 eV  25.72 Ry    5.07 a.u.   4.36  4.36  4.36*2*pi/ulx,y,z
   ENINI  =  350.0     initial cutoff
   ENAUG  =  511.4 eV  augmentation charge cutoff
   NELM   =     60;   NELMIN=  6; NELMDL= -5     # of ELM steps 
   EDIFF  = 0.1E-04   stopping-criterion for ELM
   LREAL  =      F    real-space projection
   NLSPLINE    = F    spline interpolate recip. space projectors
   LCOMPAT=      F    compatible to vasp.4.4
   GGA_COMPAT  = T    GGA compatible to vasp.4.4-vasp.4.6
   LMAXPAW     = -100 max onsite density
   LMAXMIX     =    2 max onsite mixed and CHGCAR
   VOSKOWN=      0    Vosko Wilk Nusair interpolation
   ROPT   =    0.00000
 Ionic relaxation
   EDIFFG = -.1E-01   stopping-criterion for IOM
   NSW    =     20    number of steps for IOM
   NBLOCK =      1;   KBLOCK =     20    inner block; outer block 
   IBRION =      2    ionic relax: 0-MD 1-quasi-New 2-CG
   NFREE  =      1    steps in history (QN), initial steepest desc. (CG)
   ISIF   =      2    stress and relaxation
   IWAVPR =     11    prediction:  0-non 1-charg 2-wave 3-comb
   ISYM   =      0    0-nonsym 1-usesym 2-fastsym
   LCORR  =      T    Harris-Foulkes like correction to forces

   POTIM  = 0.5000    time-step for ionic-motion
   TEIN   =    0.0    initial temperature
   TEBEG  =    0.0;   TEEND  =   0.0 temperature during run
   SMASS  =  -3.00    Nose mass-parameter (am)
   estimated Nose-frequenzy (Omega)   =  0.10E-29 period in steps =****** mass=  -0.187E-27a.u.
   SCALEE = 1.0000    scale energy and forces
   NPACO  =    256;   APACO  = 16.0  distance and # of slots for P.C.
   PSTRESS=    0.0 pullay stress

  Mass of Ions in am
   POMASS =  55.85
  Ionic Valenz
   ZVAL   =   8.00
  Atomic Wigner-Seitz radii
   RWIGS  =  -1.00
  virtual crystal weights 
   VCA    =   1.00
   NELECT =      16.0000    total number of electrons
   NUPDOWN=      -1.0000    fix difference up-down

 DOS related values:
   EMIN   =  10.00;   EMAX   =-10.00  energy-range for DOS
   EFERMI =   0.00
   ISMEAR =     1;   SIGMA  =   0.20  broadening in eV -4-tet -1-fermi 0-gaus

 Electronic relaxation 2 (details)
   IALGO  =     38    algorithm
   LDIAG  =      T    sub-space diagonalisation (order eigenvalues)
   LSUBROT=      F    optimize rotation matrix (better conditioning)
   TURBO    =      0    0=normal 1=particle mesh
   IRESTART =      0    0=no restart 2=restart with 2 vectors
   NREBOOT  =      0    no. of reboots
   NMIN     =      0    reboot dimension
   EREF     =   0.00    reference energy to select bands
   IMIX   =      4    mixing-type and parameters
     AMIX     =   0.40;   BMIX     =  1.00
     AMIX_MAG =   1.60;   BMIX_MAG =  1.00
     AMIN     =   0.10
     WC   =   100.;   INIMIX=   1;  MIXPRE=   1;  MAXMIX=  40

 Intra band minimization:
   WEIMIN = 0.0010     energy-eigenvalue tresh-hold
   EBREAK =  0.78E-07  absolut break condition
   DEPER  =   0.30     relativ break condition  

   TIME   =   0.40     timestep for ELM

  volume/ion in A,a.u.               =      11.70        78.93
  Fermi-wavevector in a.u.,A,eV,Ry     =   1.442388  2.725718 28.306695  2.080483
  Thomas-Fermi vector in A             =   2.560914
 
 Write flags
   LWAVE  =      F    write WAVECAR
   LCHARG =      F    write CHGCAR
   LVTOT  =      F    write LOCPOT, total local potential
   LVHAR  =      F    write LOCPOT, Hartree potential only
   LELF   =      F    write electronic localiz. function (ELF)
   LORBIT =      0    0 simple, 1 ext, 2 COOP (PROOUT)


 Dipole corrections
   LMONO  =      F    monopole corrections only (constant potential shift)
   LDIPOL =      F    correct potential (dipole corrections)
   IDIPOL =      0    1-x, 2-y, 3-z, 4-all directions 
   EPSILON=  1.0000000 bulk dielectric constant

 Exchange correlation treatment:
   GGA     =    PE    GGA type
   LEXCH   =     8    internal setting for exchange type
   VOSKOWN=      0    Vosko Wilk Nusair interpolation
   LHFCALC =     F    Hartree Fock is set to
   LHFONE  =     F    Hartree Fock one center treatment
   AEXX    =    0.0000 exact exchange contribution

 Linear response parameters
   LEPSILON=     F    determine dielectric tensor
   LRPA    =     F    only Hartree local field effects (RPA)
   LNABLA  =     F    use nabla operator in PAW spheres
   LVEL    =     F    velocity operator in full k-point grid
   LINTERFAST=   F  fast interpolation
   KINTER  =     0    interpolate to denser k-point grid
   CSHIFT  =0.1000    complex shift for real part using Kramers Kronig
   OMEGAMAX=  -1.0    maximum frequency
   DEG_THRESHOLD= 0.2000000E-02 threshold for treating states as degnerate
   RTIME   =    0.100 relaxation time in fs

 Orbital magnetization related:
   ORBITALMAG=     F  switch on orbital magnetization
   LCHIMAG   =     F  perturbation theory with respect to B field
   DQ        =  0.001000  dq finite difference perturbation B field



--------------------------------------------------------------------------------------------------------


 conjugate gradient relaxation of ions
 charge density and potential will be updated during run
 spin polarized calculation
 Variant of blocked Davidson
 Davidson routine will perform the subspace rotation
 perform sub-space diagonalisation
    after iterative eigenvector-optimisation
 modified Broyden-mixing scheme, WC =      100.0
 initial mixing is a Kerker type mixing with AMIX =  0.4000 and BMIX =      1.0000
 Hartree-type preconditioning will be used
 using additional bands           24
 reciprocal scheme for non local part
 use partial core corrections
 calculate Harris-corrections to forces 
   (improved forces if not selfconsistent)
 use gradient corrections 
 use of overlap-Matrix (Vanderbilt PP)
 Methfessel and Paxton  Order N= 1 SIGMA  =   0.20


--------------------------------------------------------------------------------------------------------


  energy-cutoff  :      350.00
  volume of cell :       23.39
      direct lattice vectors                 reciprocal lattice vectors
     2.860000000  0.000000000  0.000000000     0.349650350  0.000000000  0.000000000
     0.000000000  2.860000000  0.000000000     0.000000000  0.349650350  0.000000000
     0.000000000  0.000000000  2.860000000     0.000000000  0.000000000  0.349650350

  length of vectors
     2.860000000  2.860000000  2.860000000     0.349650350  0.349650350  0.349650350


 
 k-points in units of 2pi/SCALE and weight: Automatic mesh                          
   0.08333333  0.08333333  0.08333333       0.009
   0.25000000  0.08333333  0.08333333       0.009
   0.41666667  0.08333333  0.08333333       0.009
  -0.41666667  0.08333333  0.08333333       0.009
  -0.25000000  0.08333333  0.08333333       0.009
  -0.08333333  0.08333333  0.08333333       0.009
   0.08333333  0.25000000  0.08333333       0.009
   0.25000000  0.25000000  0.08333333       0.009
   0.41666667  0.25000000  0.08333333       0.009
  -0.41666667  0.25000000  0.08333333       0.009
  -0.25000000  0.25000000  0.08333333       0.009
  -0.08333333  0.25000000  0.08333333       0.009
   0.08333333  0.41666667  0.08333333       0.009
   0.25000000  0.41666667  0.08333333       0.009
   0.41666667  0.41666667  0.08333333       0.009
  -0.41666667  0.41666667  0.08333333       0.009
  -0.25000000  0.41666667  0.08333333       0.009
  -0.08333333  0.41666667  0.08333333       0.009
   0.08333333 -0.41666667  0.08333333       0.009
   0.25000000 -0.41666667  0.08333333       0.009
   0.41666667 -0.41666667  0.08333333       0.009
  -0.41666667 -0.41666667  0.08333333       0.009
  -0.25000000 -0.41666667  0.08333333       0.009
  -0.08333333 -0.41666667  0.08333333       0.009
   0.08333333 -0.25000000  0.08333333       0.009
   0.25000000 -0.25000000  0.08333333       0.009
   0.41666667 -0.25000000  0.08333333       0.009
  -0.41666667 -0.25000000  0.08333333       0.009
  -0.25000000 -0.25000000  0.08333333       0.009
  -0.08333333 -0.25000000  0.08333333       0.009
   0.08333333 -0.08333333  0.08333333       0.009
   0.25000000 -0.08333333  0.08333333       0.009
   0.41666667 -0.08333333  0.08333333       0.009
  -0.41666667 -0.08333333  0.08333333       0.009
  -0.25000000 -0.08333333  0.08333333       0.009
  -0.08333333 -0.08333333  0.08333333       0.009
   0.08333333  0.08333333  0.25000000       0.009
   0.25000000  0.08333333  0.25000000       0.009
   0.41666667  0.08333333  0.25000000       0.009
  -0.41666667  0.08333333  0.25000000       0.009
  -0.25000000  0.08333333  0.25000000       0.009
  -0.08333333  0.08333333  0.25000000       0.009
   0.08333333  0.25000000  0.25000000       0.009
   0.25000000  0.25000000  0.25000000       0.009
   0.41666667  0.25000000  0.25000000       0.009
  -0.41666667  0.25000000  0.25000000       0.009
  -0.25000000  0.25000000  0.25000000       0.009
  -0.08333333  0.25000000  0.25000000       0.009
   0.08333333  0.41666667  0.25000000       0.009
   0.25000000  0.41666667  0.25000000       0.009
   0.41666667  0.41666667  0.25000000       0.009
  -0.41666667  0.41666667  0.25000000       0.009
  -0.25000000  0.41666667  0.25000000       0.009
  -0.08333333  0.41666667  0.25000000       0.009
   0.08333333 -0.41666667  0.25000000       0.009
   0.25000000 -0.41666667  0.25000000       0.009
   0.41666667 -0.41666667  0.25000000       0.009
  -0.41666667 -0.41666667  0.25000000       0.009
  -0.25000000 -0.41666667  0.25000000       0.009
  -0.08333333 -0.41666667  0.25000000       0.009
   0.08333333 -0.25000000  0.25000000       0.009
   0.25000000 -0.25000000  0.25000000       0.009
   0.41666667 -0.25000000  0.25000000       0.009
  -0.41666667 -0.25000000  0.25000000       0.009
  -0.25000000 -0.25000000  0.25000000       0.009
  -0.08333333 -0.25000000  0.25000000       0.009
   0.08333333 -0.08333333  0.25000000       0.009
   0.25000000 -0.08333333  0.25000000       0.009
   0.41666667 -0.08333333  0.25000000       0.009
  -0.41666667 -0.08333333  0.25000000       0.009
  -0.25000000 -0.08333333  0.25000000       0.009
  -0.08333333 -0.08333333  0.25000000       0.009
   0.08333333  0.08333333  0.41666667       0.009
   0.25000000  0.08333333  0.41666667       0.009
   0.41666667  0.08333333  0.41666667       0.009
  -0.41666667  0.08333333  0.41666667       0.009
  -0.25000000  0.08333333  0.41666667       0.009
  -0.08333333  0.08333333  0.41666667       0.009
   0.08333333  0.25000000  0.41666667       0.009
   0.25000000  0.25000000  0.41666667       0.009
   0.41666667  0.25000000  0.41666667       0.009
  -0.41666667  0.25000000  0.41666667       0.009
  -0.25000000  0.25000000  0.41666667       0.009
  -0.08333333  0.25000000  0.41666667       0.009
   0.08333333  0.41666667  0.41666667       0.009
   0.25000000  0.41666667  0.41666667       0.009
   0.41666667  0.41666667  0.41666667       0.009
  -0.41666667  0.41666667  0.41666667       0.009
  -0.25000000  0.41666667  0.41666667       0.009
  -0.08333333  0.41666667  0.41666667       0.009
   0.08333333 -0.41666667  0.41666667       0.009
   0.25000000 -0.41666667  0.41666667       0.009
   0.41666667 -0.41666667  0.41666667       0.009
  -0.41666667 -0.41666667  0.41666667       0.009
  -0.25000000 -0.41666667  0.41666667       0.009
  -0.08333333 -0.41666667  0.41666667       0.009
   0.08333333 -0.25000000  0.41666667       0.009
   0.25000000 -0.25000000  0.41666667       0.009
   0.41666667 -0.25000000  0.41666667       0.009
  -0.41666667 -0.25000000  0.41666667       0.009
  -0.25000000 -0.25000000  0.41666667       0.009
  -0.08333333 -0.25000000  0.41666667       0.009
   0.08333333 -0.08333333  0.41666667       0.009
   0.25000000 -0.08333333  0.41666667       0.009
   0.41666667 -0.08333333  0.41666667       0.009
  -0.41666667 -0.08333333  0.41666667       0.009
  -0.25000000 -0.08333333  0.41666667       0.009
  -0.08333333 -0.08333333  0.41666667       0.009
 
 k-points in reciprocal lattice and weights: Automatic mesh                          
   0.08333333  0.08333333  0.08333333       0.009
   0.25000000  0.08333333  0.08333333       0.009
   0.41666667  0.08333333  0.08333333       0.009
  -0.41666667  0.08333333  0.08333333       0.009
  -0.25000000  0.08333333  0.08333333       0.009
  -0.08333333  0.08333333  0.08333333       0.009
   0.08333333  0.25000000  0.08333333       0.009
   0.25000000  0.25000000  0.08333333       0.009
   0.41666667  0.25000000  0.08333333       0.009
  -0.41666667  0.25000000  0.08333333       0.009
  -0.25000000  0.25000000  0.08333333       0.009
  -0.08333333  0.25000000  0.08333333       0.009
   0.08333333  0.41666667  0.08333333       0.009
   0.25000000  0.41666667  0.08333333       0.009
   0.41666667  0.41666667  0.08333333       0.009
  -0.41666667  0.41666667  0.08333333       0.009
  -0.25000000  0.41666667  0.08333333       0.009
  -0.08333333  0.41666667  0.08333333       0.009
   0.08333333 -0.41666667  0.08333333       0.009
   0.25000000 -0.41666667  0.08333333       0.009
   0.41666667 -0.41666667  0.08333333       0.009
  -0.41666667 -0.41666667  0.08333333       0.009
  -0.25000000 -0.41666667  0.08333333       0.009
  -0.08333333 -0.41666667  0.08333333       0.009
   0.08333333 -0.25000000  0.08333333       0.009
   0.25000000 -0.25000000  0.08333333       0.009
   0.41666667 -0.25000000  0.08333333       0.009
  -0.41666667 -0.25000000  0.08333333       0.009
  -0.25000000 -0.25000000  0.08333333       0.009
  -0.08333333 -0.25000000  0.08333333       0.009
   0.08333333 -0.08333333  0.08333333       0.009
   0.25000000 -0.08333333  0.08333333       0.009
   0.41666667 -0.08333333  0.08333333       0.009
  -0.41666667 -0.08333333  0.08333333       0.009
  -0.25000000 -0.08333333  0.08333333       0.009
  -0.08333333 -0.08333333  0.08333333       0.009
   0.08333333  0.08333333  0.25000000       0.009
   0.25000000  0.08333333  0.25000000       0.009
   0.41666667  0.08333333  0.25000000       0.009
  -0.41666667  0.08333333  0.25000000       0.009
  -0.25000000  0.08333333  0.25000000       0.009
  -0.08333333  0.08333333  0.25000000       0.009
   0.08333333  0.25000000  0.25000000       0.009
   0.25000000  0.25000000  0.25000000       0.009
   0.41666667  0.25000000  0.25000000       0.009
  -0.41666667  0.25000000  0.25000000       0.009
  -0.25000000  0.25000000  0.25000000       0.009
  -0.08333333  0.25000000  0.25000000       0.009
   0.08333333  0.41666667  0.25000000       0.009
   0.25000000  0.41666667  0.25000000       0.009
   0.41666667  0.41666667  0.25000000       0.009
  -0.41666667  0.41666667  0.25000000       0.009
  -0.25000000  0.41666667  0.25000000       0.009
  -0.08333333  0.41666667  0.25000000       0.009
   0.08333333 -0.41666667  0.25000000       0.009
   0.25000000 -0.41666667  0.25000000       0.009
   0.41666667 -0.41666667  0.25000000       0.009
  -0.41666667 -0.41666667  0.25000000       0.009
  -0.25000000 -0.41666667  0.25000000       0.009
  -0.08333333 -0.41666667  0.25000000       0.009
   0.08333333 -0.25000000  0.25000000       0.009
   0.25000000 -0.25000000  0.25000000       0.009
   0.41666667 -0.25000000  0.25000000       0.009
  -0.41666667 -0.25000000  0.25000000       0.009
  -0.25000000 -0.25000000  0.25000000       0.009
  -0.08333333 -0.25000000  0.25000000       0.009
   0.08333333 -0.08333333  0.25000000       0.009
   0.25000000 -0.08333333  0.25000000       0.009
   0.41666667 -0.08333333  0.25000000       0.009
  -0.41666667 -0.08333333  0.25000000       0.009
  -0.25000000 -0.08333333  0.25000000       0.009
  -0.08333333 -0.08333333  0.25000000       0.009
   0.08333333  0.08333333  0.41666667       0.009
   0.25000000  0.08333333  0.41666667       0.009
   0.41666667  0.08333333  0.41666667       0.009
  -0.41666667  0.08333333  0.41666667       0.009
  -0.25000000  0.08333333  0.41666667       0.009
  -0.08333333  0.08333333  0.41666667       0.009
   0.08333333  0.25000000  0.41666667       0.009
   0.25000000  0.25000000  0.41666667       0.009
   0.41666667  0.25000000  0.41666667       0.009
  -0.41666667  0.25000000  0.41666667       0.009
  -0.25000000  0.25000000  0.41666667       0.009
  -0.08333333  0.25000000  0.41666667       0.009
   0.08333333  0.41666667  0.41666667       0.009
   0.25000000  0.41666667  0.41666667       0.009
   0.41666667  0.41666667  0.41666667       0.009
  -0.41666667  0.41666667  0.41666667       0.009
  -0.25000000  0.41666667  0.41666667       0.009
  -0.08333333  0.41666667  0.41666667       0.009
   0.08333333 -0.41666667  0.41666667       0.009
   0.25000000 -0.41666667  0.41666667       0.009
   0.41666667 -0.41666667  0.41666667       0.009
  -0.41666667 -0.41666667  0.41666667       0.009
  -0.25000000 -0.41666667  0.41666667       0.009
  -0.08333333 -0.41666667  0.41666667       0.009
   0.08333333 -0.25000000  0.41666667       0.009
   0.25000000 -0.25000000  0.41666667       0.009
   0.41666667 -0.25000000  0.41666667       0.009
  -0.41666667 -0.25000000  0.41666667       0.009
  -0.25000000 -0.25000000  0.41666667       0.009
  -0.08333333 -0.25000000  0.41666667       0.009
   0.08333333 -0.08333333  0.41666667       0.009
   0.25000000 -0.08333333  0.41666667       0.009
   0.41666667 -0.08333333  0.41666667       0.009
  -0.41666667 -0.08333333  0.41666667       0.009
  -0.25000000 -0.08333333  0.41666667       0.009
  -0.08333333 -0.08333333  0.41666667       0.009
 
 position of ions in fractional coordinates (direct lattice) 
   0.00000000  0.00000000  0.00000000
   0.50000000  0.50000000  0.50000000
 
 position of ions in cartesian coordinates  (Angst):
   0.00000000  0.00000000  0.00000000
   1.43000000  1.43000000  1.43000000
 


--------------------------------------------------------------------------------------------------------


 k-point  1 :   0.0833 0.0833 0.0833  plane waves:     359
 k-point  2 :   0.2500 0.0833 0.0833  plane waves:     347
 k-point  3 :   0.4167 0.0833 0.0833  plane waves:     350
 k-point  4 :  -0.4167 0.0833 0.0833  plane waves:     350
 k-point  5 :  -0.2500 0.0833 0.0833  plane waves:     347
 k-point  6 :  -0.0833 0.0833 0.0833  plane waves:     359
 k-point  7 :   0.0833 0.2500 0.0833  plane waves:     347
 k-point  8 :   0.2500 0.2500 0.0833  plane waves:     349
 k-point  9 :   0.4167 0.2500 0.0833  plane waves:     347
 k-point 10 :  -0.4167 0.2500 0.0833  plane waves:     347
 k-point 11 :  -0.2500 0.2500 0.0833  plane waves:     349
 k-point 12 :  -0.0833 0.2500 0.0833  plane waves:     347
 k-point 13 :   0.0833 0.4167 0.0833  plane waves:     350
 k-point 14 :   0.2500 0.4167 0.0833  plane waves:     347
 k-point 15 :   0.4167 0.4167 0.0833  plane waves:     350
 k-point 16 :  -0.4167 0.4167 0.0833  plane waves:     350
 k-point 17 :  -0.2500 0.4167 0.0833  plane waves:     347
 k-point 18 :  -0.0833 0.4167 0.0833  plane waves:     350
 k-point 19 :   0.0833-0.4167 0.0833  plane waves:     350
 k-point 20 :   0.2500-0.4167 0.0833  plane waves:     347
 k-point 21 :   0.4167-0.4167 0.0833  plane waves:     350
 k-point 22 :  -0.4167-0.4167 0.0833  plane waves:     350
 k-point 23 :  -0.2500-0.4167 0.0833  plane waves:     347
 k-point 24 :  -0.0833-0.4167 0.0833  plane waves:     350
 k-point 25 :   0.0833-0.2500 0.0833  plane waves:     347
 k-point 26 :   0.2500-0.2500 0.0833  plane waves:     349
 k-point 27 :   0.4167-0.2500 0.0833  plane waves:     347
 k-point 28 :  -0.4167-0.2500 0.0833  plane waves:     347
 k-point 29 :  -0.2500-0.2500 0.0833  plane waves:     349
 k-point 30 :  -0.0833-0.2500 0.0833  plane waves:     347
 k-point 31 :   0.0833-0.0833 0.0833  plane waves:     359
 k-point 32 :   0.2500-0.0833 0.0833  plane waves:     347
 k-point 33 :   0.4167-0.0833 0.0833  plane waves:     350
 k-point 34 :  -0.4167-0.0833 0.0833  plane waves:     350
 k-point 35 :  -0.2500-0.0833 0.0833  plane waves:     347
 k-point 36 :  -0.0833-0.0833 0.0833  plane waves:     359
 k-point 37 :   0.0833 0.0833 0.2500  plane waves:     347
 k-point 38 :   0.2500 0.0833 0.2500  plane waves:     349
 k-point 39 :   0.4167 0.0833 0.2500  plane waves:     347
 k-point 40 :  -0.4167 0.0833 0.2500  plane waves:     347
 k-point 41 :  -0.2500 0.0833 0.2500  plane waves:     349
 k-point 42 :  -0.0833 0.0833 0.2500  plane waves:     347
 k-point 43 :   0.0833 0.2500 0.2500  plane waves:     349
 k-point 44 :   0.2500 0.2500 0.2500  plane waves:     350
 k-point 45 :   0.4167 0.2500 0.2500  plane waves:     346
 k-point 46 :  -0.4167 0.2500 0.2500  plane waves:     346
 k-point 47 :  -0.2500 0.2500 0.2500  plane waves:     350
 k-point 48 :  -0.0833 0.2500 0.2500  plane waves:     349
 k-point 49 :   0.0833 0.4167 0.2500  plane waves:     347
 k-point 50 :   0.2500 0.4167 0.2500  plane waves:     346
 k-point 51 :   0.4167 0.4167 0.2500  plane waves:     343
 k-point 52 :  -0.4167 0.4167 0.2500  plane waves:     343
 k-point 53 :  -0.2500 0.4167 0.2500  plane waves:     346
 k-point 54 :  -0.0833 0.4167 0.2500  plane waves:     347
 k-point 55 :   0.0833-0.4167 0.2500  plane waves:     347
 k-point 56 :   0.2500-0.4167 0.2500  plane waves:     346
 k-point 57 :   0.4167-0.4167 0.2500  plane waves:     343
 k-point 58 :  -0.4167-0.4167 0.2500  plane waves:     343
 k-point 59 :  -0.2500-0.4167 0.2500  plane waves:     346
 k-point 60 :  -0.0833-0.4167 0.2500  plane waves:     347
 k-point 61 :   0.0833-0.2500 0.2500  plane waves:     349
 k-point 62 :   0.2500-0.2500 0.2500  plane waves:     350
 k-point 63 :   0.4167-0.2500 0.2500  plane waves:     346
 k-point 64 :  -0.4167-0.2500 0.2500  plane waves:     346
 k-point 65 :  -0.2500-0.2500 0.2500  plane waves:     350
 k-point 66 :  -0.0833-0.2500 0.2500  plane waves:     349
 k-point 67 :   0.0833-0.0833 0.2500  plane waves:     347
 k-point 68 :   0.2500-0.0833 0.2500  plane waves:     349
 k-point 69 :   0.4167-0.0833 0.2500  plane waves:     347
 k-point 70 :  -0.4167-0.0833 0.2500  plane waves:     347
 k-point 71 :  -0.2500-0.0833 0.2500  plane waves:     349
 k-point 72 :  -0.0833-0.0833 0.2500  plane waves:     347
 k-point 73 :   0.0833 0.0833 0.4167  plane waves:     350
 k-point 74 :   0.2500 0.0833 0.4167  plane waves:     347
 k-point 75 :   0.4167 0.0833 0.4167  plane waves:     350
 k-point 76 :  -0.4167 0.0833 0.4167  plane waves:     350
 k-point 77 :  -0.2500 0.0833 0.4167  plane waves:     347
 k-point 78 :  -0.0833 0.0833 0.4167  plane waves:     350
 k-point 79 :   0.0833 0.2500 0.4167  plane waves:     347
 k-point 80 :   0.2500 0.2500 0.4167  plane waves:     346
 k-point 81 :   0.4167 0.2500 0.4167  plane waves:     343
 k-point 82 :  -0.4167 0.2500 0.4167  plane waves:     343
 k-point 83 :  -0.2500 0.2500 0.4167  plane waves:     346
 k-point 84 :  -0.0833 0.2500 0.4167  plane waves:     347
 k-point 85 :   0.0833 0.4167 0.4167  plane waves:     350
 k-point 86 :   0.2500 0.4167 0.4167  plane waves:     343
 k-point 87 :   0.4167 0.4167 0.4167  plane waves:     344
 k-point 88 :  -0.4167 0.4167 0.4167  plane waves:     344
 k-point 89 :  -0.2500 0.4167 0.4167  plane waves:     343
 k-point 90 :  -0.0833 0.4167 0.4167  plane waves:     350
 k-point 91 :   0.0833-0.4167 0.4167  plane waves:     350
 k-point 92 :   0.2500-0.4167 0.4167  plane waves:     343
 k-point 93 :   0.4167-0.4167 0.4167  plane waves:     344
 k-point 94 :  -0.4167-0.4167 0.4167  plane waves:     344
 k-point 95 :  -0.2500-0.4167 0.4167  plane waves:     343
 k-point 96 :  -0.0833-0.4167 0.4167  plane waves:     350
 k-point 97 :   0.0833-0.2500 0.4167  plane waves:     347
 k-point 98 :   0.2500-0.2500 0.4167  plane waves:     346
 k-point 99 :   0.4167-0.2500 0.4167  plane waves:     343
 k-point ** :  -0.4167-0.2500 0.4167  plane waves:     343
 k-point ** :  -0.2500-0.2500 0.4167  plane waves:     346
 k-point ** :  -0.0833-0.2500 0.4167  plane waves:     347
 k-point ** :   0.0833-0.0833 0.4167  plane waves:     350
 k-point ** :   0.2500-0.0833 0.4167  plane waves:     347
 k-point ** :   0.4167-0.0833 0.4167  plane waves:     350
 k-point ** :  -0.4167-0.0833 0.4167  plane waves:     350
 k-point ** :  -0.2500-0.0833 0.4167  plane waves:     347
 k-point ** :  -0.0833-0.0833 0.4167  plane waves:     350

 maximum and minimum number of plane-waves per node :       359      343

 maximum number of plane-waves:       359
 maximum index in each direction: 
   IXMAX=    4   IYMAX=    4   IZMAX=    4
   IXMIN=   -4   IYMIN=   -4   IZMIN=   -4

 WARNING: aliasing errors must be expected set NGX to  18 to avoid them
 WARNING: aliasing errors must be expected set NGY to  18 to avoid them
 WARNING: aliasing errors must be expected set NGZ to  18 to avoid them
 aliasing errors are usually negligible using standard VASP settings
 and one can safely disregard these warnings

 serial   3D FFT for wavefunctions
 parallel 3D FFT for charge:
    minimum data exchange during FFTs selected (reduces bandwidth)


 total amount of memory used by VASP on root node    37925. kBytes
========================================================================

   base      :      30000. kBytes
   nonl-proj :       5984. kBytes
   fftplans  :         46. kBytes
   grid      :        285. kBytes
   one-center:         62. kBytes
   wavefun   :       1548. kBytes
 
     INWAV:  cpu time    0.0000: real time    0.0000
 Broyden mixing: mesh for mixing (old mesh)
   NGX =  9   NGY =  9   NGZ =  9
  (NGX  = 28   NGY  = 28   NGZ  = 28)
  gives a total of    729 points

 initial charge density was supplied:
 charge density of overlapping atoms calculated
 number of electron      16.0000000 magnetization       2.0000000
 keeping initial charge density in first step


--------------------------------------------------------------------------------------------------------


 Maximum index for augmentation-charges          301 (set IRDMAX)


--------------------------------------------------------------------------------------------------------


 First call to EWALD:  gamma=   0.620
 Maximum number of real-space cells 3x 3x 3
 Maximum number of reciprocal cells 3x 3x 3

 FEWALD executed in parallel
    FEWALD:  cpu time    0.0030: real time    0.0020


----------------------------------------- Iteration    1(   1)  ---------------------------------------


    POTLOK:  cpu time    0.0150: real time    0.0162
    SETDIJ:  cpu time    0.0070: real time    0.0070
     EDDAV:  cpu time    2.5696: real time    2.5797
       DOS:  cpu time    0.0020: real time    0.0021
    --------------------------------------------
      LOOP:  cpu time    2.5986: real time    2.6212

 eigenvalue-minimisations  : 14176
 total energy-change (2. order) :-0.9215915E+01  (-0.6863967E+03)
 number of electron      16.0000000 magnetization       2.0000000
 augmentation part       16.0000000 magnetization       2.0000000

 Free energy of the ion-electron system (eV)
  ---------------------------------------------------
  alpha Z        PSCENC =       118.17524546
  Ewald energy   TEWEN  =     -1172.68111701
  -Hartree energ DENC   =      -227.55063009
  -exchange      EXHF   =         0.00000000
  -V(xc)+E(xc)   XCENC  =         7.90833155
  PAW double counting   =      1109.45345578    -1124.86183816
  entropy T*S    EENTRO =        -0.00338272
  eigenvalues    EBANDS =        91.75436439
  atomic energy  EATOM  =      1188.58965621
  Solvation  Ediel_sol  =         0.00000000
  ---------------------------------------------------
  free energy    TOTEN  =        -9.21591460 eV

  energy without entropy =       -9.21253187  energy(sigma->0) =       -9.21478702


--------------------------------------------------------------------------------------------------------




----------------------------------------- Iteration    1(   2)  ---------------------------------------


     EDDAV:  cpu time    4.1474: real time    4.1606
       DOS:  cpu time    0.0020: real time    0.0020
    --------------------------------------------
      LOOP:  cpu time    4.1504: real time    4.1758

 eigenvalue-minimisations  : 19040
 total energy-change (2. order) :-0.9265240E+01  (-0.9059068E+01)
 number of electron      16.0000000 magnetization       2.0000000
 augmentation part       16.0000000 magnetization       2.0000000

 Free energy of the ion-electron system (eV)
  ---------------------------------------------------
  alpha Z        PSCENC =       118.17524546
  Ewald energy   TEWEN  =     -1172.68111701
  -Hartree energ DENC   =      -227.55063009
  -exchange      EXHF   =         0.00000000
  -V(xc)+E(xc)   XCENC  =         7.90833155
  PAW double counting   =      1109.45345578    -1124.86183816
  entropy T*S    EENTRO =        -0.01454816
  eigenvalues    EBANDS =        82.50029009
  atomic energy  EATOM  =      1188.58965621
  Solvation  Ediel_sol  =         0.00000000
  ---------------------------------------------------
  free energy    TOTEN  =       -18.48115433 eV

  energy without entropy =      -18.46660618  energy(sigma->0) =      -18.47630495


--------------------------------------------------------------------------------------------------------




----------------------------------------- Iteration    1(   3)  ---------------------------------------


     EDDAV:  cpu time    3.0565: real time    3.0663
       DOS:  cpu time    0.0020: real time    0.0021
    --------------------------------------------
      LOOP:  cpu time    3.0595: real time    3.0815

 eigenvalue-minimisations  : 15456
 total energy-change (2. order) :-0.9194761E-02  (-0.9189997E-02)
 number of electron      16.0000000 magnetization       2.0000000
 augmentation part       16.0000000 magnetization       2.0000000

 Free energy of the ion-electron system (eV)
  ---------------------------------------------------
  alpha Z        PSCENC =       118.17524546
  Ewald energy   TEWEN  =     -1172.68111701
  -Hartree energ DENC   =      -227.55063009
  -exchange      EXHF   =         0.00000000
  -V(xc)+E(xc)   XCENC  =         7.90833155
  PAW double counting   =      1109.45345578    -1124.86183816
  entropy T*S    EENTRO =        -0.01454742
  eigenvalues    EBANDS =        82.49109459
  atomic energy  EATOM  =      1188.58965621
  Solvation  Ediel_sol  =         0.00000000
  ---------------------------------------------------
  free energy    TOTEN  =       -18.49034909 eV

  energy without entropy =      -18.47580167  energy(sigma->0) =      -18.48549995


--------------------------------------------------------------------------------------------------------




----------------------------------------- Iteration    1(   4)  ---------------------------------------


     EDDAV:  cpu time    6.0361: real time    6.0546
       DOS:  cpu time    0.0020: real time    0.0019
    --------------------------------------------
      LOOP:  cpu time    6.0401: real time    6.0685

 eigenvalue-minimisations  : 23200
 total energy-change (2. order) :-0.6919307E-05  (-0.6919590E-05)
 number of electron      16.0000000 magnetization       2.0000000
 augmentation part       16.0000000 magnetization       2.0000000

 Free energy of the ion-electron system (eV)
  ---------------------------------------------------
  alpha Z        PSCENC =       118.17524546
  Ewald energy   TEWEN  =     -1172.68111701
  -Hartree energ DENC   =      -227.55063009
  -exchange      EXHF   =         0.00000000
  -V(xc)+E(xc)   XCENC  =         7.90833155
  PAW double counting   =      1109.45345578    -1124.86183816
  entropy T*S    EENTRO =        -0.01454743
  eigenvalues    EBANDS =        82.49108768
  atomic energy  EATOM  =      1188.58965621
  Solvation  Ediel_sol  =         0.00000000
  ---------------------------------------------------
  free energy    TOTEN  =       -18.49035601 eV

  energy without entropy =      -18.47580858  energy(sigma->0) =      -18.48550687


--------------------------------------------------------------------------------------------------------




----------------------------------------- Iteration    1(   5)  ---------------------------------------


     EDDAV:  cpu time    3.2765: real time    3.2848
       DOS:  cpu time    0.0020: real time    0.0020
    CHARGE:  cpu time    0.0110: real time    0.0116
    MIXING:  cpu time    0.0010: real time    0.0004
    --------------------------------------------
      LOOP:  cpu time    3.2905: real time    3.3118

 eigenvalue-minimisations  : 15904
 total energy-change (2. order) :-0.1894023E-09  (-0.2003864E-10)
 number of electron      15.9999915 magnetization       2.4722153
 augmentation part        7.1408821 magnetization       1.8109770

 Broyden mixing:
  rms(total) = 0.15699E+01    rms(broyden)= 0.15693E+01
  rms(prec ) = 0.37483E+01
  weight for this iteration     100.00

 Free energy of the ion-electron system (eV)
  ---------------------------------------------------
  alpha Z        PSCENC =       118.17524546
  Ewald energy   TEWEN  =     -1172.68111701
  -Hartree energ DENC   =      -227.55063009
  -exchange      EXHF   =         0.00000000
  -V(xc)+E(xc)   XCENC  =         7.90833155
  PAW double counting   =      1109.45345578    -1124.86183816
  entropy T*S    EENTRO =        -0.01454743
  eigenvalues    EBANDS =        82.49108768
  atomic energy  EATOM  =      1188.58965621
  Solvation  Ediel_sol  =         0.00000000
  ---------------------------------------------------
  free energy    TOTEN  =       -18.49035601 eV

  energy without entropy =      -18.47580858  energy(sigma->0) =      -18.48550687


--------------------------------------------------------------------------------------------------------




----------------------------------------- Iteration    1(   6)  ---------------------------------------


    POTLOK:  cpu time    0.0030: real time    0.0040
    SETDIJ:  cpu time    0.0080: real time    0.0070
     EDDAV:  cpu time    4.1164: real time    4.1286
       DOS:  cpu time    0.0020: real time    0.0020
    CHARGE:  cpu time    0.0120: real time    0.0122
    MIXING:  cpu time    0.0010: real time    0.0003
    --------------------------------------------
      LOOP:  cpu time    4.1434: real time    4.1670

 eigenvalue-minimisations  : 18432
 total energy-change (2. order) : 0.2061913E+01  (-0.3320569E+01)
 number of electron      15.9999891 magnetization       3.5313143
 augmentation part        8.6498974 magnetization       2.8661487

 Broyden mixing:
  rms(total) = 0.90522E+00    rms(broyden)= 0.90468E+00
  rms(prec ) = 0.11938E+01
  weight for this iteration     100.00

 eigenvalues of (default mixing * dielectric matrix)
  average eigenvalue GAMMA=   0.5699
  0.5699

 Free energy of the ion-electron system (eV)
  ---------------------------------------------------
  alpha Z        PSCENC =       118.17524546
  Ewald energy   TEWEN  =     -1172.68111701
  -Hartree energ DENC   =      -191.88805614
  -exchange      EXHF   =         0.00000000
  -V(xc)+E(xc)   XCENC  =         6.63221587
  PAW double counting   =      1193.47523578    -1203.93308519
  entropy T*S    EENTRO =         0.01801176
  eigenvalues    EBANDS =        45.18345045
  atomic energy  EATOM  =      1188.58965621
  Solvation  Ediel_sol  =         0.00000000
  ---------------------------------------------------
  free energy    TOTEN  =       -16.42844281 eV

  energy without entropy =      -16.44645457  energy(sigma->0) =      -16.43444673


--------------------------------------------------------------------------------------------------------




----------------------------------------- Iteration    1(   7)  ---------------------------------------


    POTLOK:  cpu time    0.0020: real time    0.0039
    SETDIJ:  cpu time    0.0070: real time    0.0070
     EDDAV:  cpu time    3.2195: real time    3.2303
       DOS:  cpu time    0.0020: real time    0.0019
    CHARGE:  cpu time    0.0110: real time    0.0114
    MIXING:  cpu time    0.0000: real time    0.0003
    --------------------------------------------
      LOOP:  cpu time    3.2425: real time    3.2677

 eigenvalue-minimisations  : 16000
 total energy-change (2. order) : 0.3995535E-01  (-0.2632083E+00)
 number of electron      15.9999897 magnetization       4.3340981
 augmentation part        8.2685266 magnetization       3.5770961

 Broyden mixing:
  rms(total) = 0.46125E+00    rms(broyden)= 0.46123E+00
  rms(prec ) = 0.51338E+00
  weight for this iteration     100.00

 eigenvalues of (default mixing * dielectric matrix)
  average eigenvalue GAMMA=   0.8937
  1.1540  0.6334

 Free energy of the ion-electron system (eV)
  ---------------------------------------------------
  alpha Z        PSCENC =       118.17524546
  Ewald energy   TEWEN  =     -1172.68111701
  -Hartree energ DENC   =      -198.20424342
  -exchange      EXHF   =         0.00000000
  -V(xc)+E(xc)   XCENC  =         7.77611626
  PAW double counting   =      1260.16224380    -1274.39016996
  entropy T*S    EENTRO =        -0.01970075
  eigenvalues    EBANDS =        54.20348196
  atomic energy  EATOM  =      1188.58965621
  Solvation  Ediel_sol  =         0.00000000
  ---------------------------------------------------
  free energy    TOTEN  =       -16.38848747 eV

  energy without entropy =      -16.36878671  energy(sigma->0) =      -16.38192055


--------------------------------------------------------------------------------------------------------




----------------------------------------- Iteration    1(   8)  ---------------------------------------


    POTLOK:  cpu time    0.0020: real time    0.0037
    SETDIJ:  cpu time    0.0070: real time    0.0070
     EDDAV:  cpu time    4.9822: real time    4.9959
       DOS:  cpu time    0.0020: real time    0.0020
    CHARGE:  cpu time    0.0120: real time    0.0123
    MIXING:  cpu time    0.0010: real time    0.0002
    --------------------------------------------
      LOOP:  cpu time    5.0082: real time    5.0343

 eigenvalue-minimisations  : 21248
 total energy-change (2. order) :-0.6624908E-01  (-0.1487187E-01)
 number of electron      15.9999898 magnetization       4.4975641
 augmentation part        8.2756297 magnetization       3.7730523

 Broyden mixing:
  rms(total) = 0.24579E+00    rms(broyden)= 0.24572E+00
  rms(prec ) = 0.28761E+00
  weight for this iteration     100.00

 eigenvalues of (default mixing * dielectric matrix)
  average eigenvalue GAMMA=   1.0039
  1.6967  0.6574  0.6574

 Free energy of the ion-electron system (eV)
  ---------------------------------------------------
  alpha Z        PSCENC =       118.17524546
  Ewald energy   TEWEN  =     -1172.68111701
  -Hartree energ DENC   =      -196.59408590
  -exchange      EXHF   =         0.00000000
  -V(xc)+E(xc)   XCENC  =         8.45134087
  PAW double counting   =      1317.53563681    -1333.44506922
  entropy T*S    EENTRO =        -0.01656788
  eigenvalues    EBANDS =        53.53022411
  atomic energy  EATOM  =      1188.58965621
  Solvation  Ediel_sol  =         0.00000000
  ---------------------------------------------------
  free energy    TOTEN  =       -16.45473655 eV

  energy without entropy =      -16.43816867  energy(sigma->0) =      -16.44921392


--------------------------------------------------------------------------------------------------------




----------------------------------------- Iteration    1(   9)  ---------------------------------------


    POTLOK:  cpu time    0.0040: real time    0.0037
    SETDIJ:  cpu time    0.0060: real time    0.0070
     EDDAV:  cpu time    4.7963: real time    4.8346
       DOS:  cpu time    0.0020: real time    0.0018
    CHARGE:  cpu time    0.0150: real time    0.0149
    MIXING:  cpu time    0.0000: real time    0.0002
    --------------------------------------------
      LOOP:  cpu time    4.8233: real time    4.8754

 eigenvalue-minimisations  : 20480
 total energy-change (2. order) : 0.1143333E-01  (-0.2755053E-02)
 number of electron      15.9999897 magnetization       4.3598257
 augmentation part        8.2961144 magnetization       3.6204808

 Broyden mixing:
  rms(total) = 0.13079E+00    rms(broyden)= 0.13067E+00
  rms(prec ) = 0.14064E+00
  weight for this iteration     100.00

 eigenvalues of (default mixing * dielectric matrix)
  average eigenvalue GAMMA=   1.4316
  2.9312  1.3922  0.7765  0.6267

 Free energy of the ion-electron system (eV)
  ---------------------------------------------------
  alpha Z        PSCENC =       118.17524546
  Ewald energy   TEWEN  =     -1172.68111701
  -Hartree energ DENC   =      -195.09589350
  -exchange      EXHF   =         0.00000000
  -V(xc)+E(xc)   XCENC  =         8.63141803
  PAW double counting   =      1370.40354923    -1387.67110153
  entropy T*S    EENTRO =        -0.01691340
  eigenvalues    EBANDS =        53.22185330
  atomic energy  EATOM  =      1188.58965621
  Solvation  Ediel_sol  =         0.00000000
  ---------------------------------------------------
  free energy    TOTEN  =       -16.44330322 eV

  energy without entropy =      -16.42638982  energy(sigma->0) =      -16.43766542


--------------------------------------------------------------------------------------------------------




----------------------------------------- Iteration    1(  10)  ---------------------------------------


    POTLOK:  cpu time    0.0030: real time    0.0036
    SETDIJ:  cpu time    0.0070: real time    0.0070
     EDDAV:  cpu time    4.9762: real time    4.9922
       DOS:  cpu time    0.0020: real time    0.0019
    CHARGE:  cpu time    0.0150: real time    0.0149
    MIXING:  cpu time    0.0000: real time    0.0003
    --------------------------------------------
      LOOP:  cpu time    5.0052: real time    5.0331

 eigenvalue-minimisations  : 20864
 total energy-change (2. order) :-0.1531461E-02  (-0.1900592E-02)
 number of electron      15.9999897 magnetization       4.3205704
 augmentation part        8.2795806 magnetization       3.5878974

 Broyden mixing:
  rms(total) = 0.78254E-01    rms(broyden)= 0.78250E-01
  rms(prec ) = 0.85555E-01
  weight for this iteration     100.00

 eigenvalues of (default mixing * dielectric matrix)
  average eigenvalue GAMMA=   1.2244
  2.3220  1.5731  0.9320  0.6474  0.6474

 Free energy of the ion-electron system (eV)
  ---------------------------------------------------
  alpha Z        PSCENC =       118.17524546
  Ewald energy   TEWEN  =     -1172.68111701
  -Hartree energ DENC   =      -193.95427633
  -exchange      EXHF   =         0.00000000
  -V(xc)+E(xc)   XCENC  =         8.44704725
  PAW double counting   =      1431.80923157    -1450.39076179
  entropy T*S    EENTRO =        -0.01719215
  eigenvalues    EBANDS =        53.57733211
  atomic energy  EATOM  =      1188.58965621
  Solvation  Ediel_sol  =         0.00000000
  ---------------------------------------------------
  free energy    TOTEN  =       -16.44483468 eV

  energy without entropy =      -16.42764253  energy(sigma->0) =      -16.43910396


--------------------------------------------------------------------------------------------------------




----------------------------------------- Iteration    1(  11)  ---------------------------------------


    POTLOK:  cpu time    0.0030: real time    0.0036
    SETDIJ:  cpu time    0.0070: real time    0.0070
     EDDAV:  cpu time    4.3863: real time    4.4026
       DOS:  cpu time    0.0020: real time    0.0018
    CHARGE:  cpu time    0.0150: real time    0.0149
    MIXING:  cpu time    0.0000: real time    0.0003
    --------------------------------------------
      LOOP:  cpu time    4.4143: real time    4.4418

 eigenvalue-minimisations  : 19072
 total energy-change (2. order) : 0.4863111E-03  (-0.5490850E-03)
 number of electron      15.9999898 magnetization       4.3378267
 augmentation part        8.2933886 magnetization       3.6100820

 Broyden mixing:
  rms(total) = 0.14559E-01    rms(broyden)= 0.14530E-01
  rms(prec ) = 0.18764E-01
  weight for this iteration     100.00

 eigenvalues of (default mixing * dielectric matrix)
  average eigenvalue GAMMA=   1.1287
  2.2640  1.2586  1.2586  0.6337  0.6786  0.6786

 Free energy of the ion-electron system (eV)
  ---------------------------------------------------
  alpha Z        PSCENC =       118.17524546
  Ewald energy   TEWEN  =     -1172.68111701
  -Hartree energ DENC   =      -194.10992161
  -exchange      EXHF   =         0.00000000
  -V(xc)+E(xc)   XCENC  =         8.40486051
  PAW double counting   =      1411.04835625    -1429.07441564
  entropy T*S    EENTRO =        -0.01750031
  eigenvalues    EBANDS =        53.22048778
  atomic energy  EATOM  =      1188.58965621
  Solvation  Ediel_sol  =         0.00000000
  ---------------------------------------------------
  free energy    TOTEN  =       -16.44434836 eV

  energy without entropy =      -16.42684805  energy(sigma->0) =      -16.43851493


--------------------------------------------------------------------------------------------------------




----------------------------------------- Iteration    1(  12)  ---------------------------------------


    POTLOK:  cpu time    0.0020: real time    0.0035
    SETDIJ:  cpu time    0.0070: real time    0.0070
     EDDAV:  cpu time    4.1824: real time    4.1940
       DOS:  cpu time    0.0020: real time    0.0019
    CHARGE:  cpu time    0.0150: real time    0.0149
    MIXING:  cpu time    0.0000: real time    0.0003
    --------------------------------------------
      LOOP:  cpu time    4.2094: real time    4.2344

 eigenvalue-minimisations  : 18816
 total energy-change (2. order) : 0.2102024E-04  (-0.2324322E-04)
 number of electron      15.9999897 magnetization       4.3293907
 augmentation part        8.2970492 magnetization       3.6017415

 Broyden mixing:
  rms(total) = 0.49379E-02    rms(broyden)= 0.49363E-02
  rms(prec ) = 0.60697E-02
  weight for this iteration     100.00

 eigenvalues of (default mixing * dielectric matrix)
  average eigenvalue GAMMA=   1.1155
  2.2780  1.4897  1.0217  1.0217  0.6865  0.6865  0.6240

 Free energy of the ion-electron system (eV)
  ---------------------------------------------------
  alpha Z        PSCENC =       118.17524546
  Ewald energy   TEWEN  =     -1172.68111701
  -Hartree energ DENC   =      -194.06531226
  -exchange      EXHF   =         0.00000000
  -V(xc)+E(xc)   XCENC  =         8.43042055
  PAW double counting   =      1410.78851694    -1428.80728559
  entropy T*S    EENTRO =        -0.01762281
  eigenvalues    EBANDS =        53.14317116
  atomic energy  EATOM  =      1188.58965621
  Solvation  Ediel_sol  =         0.00000000
  ---------------------------------------------------
  free energy    TOTEN  =       -16.44432734 eV

  energy without entropy =      -16.42670454  energy(sigma->0) =      -16.43845308


--------------------------------------------------------------------------------------------------------




----------------------------------------- Iteration    1(  13)  ---------------------------------------


    POTLOK:  cpu time    0.0020: real time    0.0034
    SETDIJ:  cpu time    0.0070: real time    0.0070
     EDDAV:  cpu time    2.6346: real time    2.6427
       DOS:  cpu time    0.0020: real time    0.0019
    --------------------------------------------
      LOOP:  cpu time    2.6476: real time    2.6677

 eigenvalue-minimisations  : 14016
 total energy-change (2. order) : 0.1057658E-05  (-0.1454697E-05)
 number of electron      15.9999897 magnetization       4.3293907
 augmentation part        8.2970492 magnetization       3.6017415

 Free energy of the ion-electron system (eV)
  ---------------------------------------------------
  alpha Z        PSCENC =       118.17524546
  Ewald energy   TEWEN  =     -1172.68111701
  -Hartree energ DENC   =      -194.04831170
  -exchange      EXHF   =         0.00000000
  -V(xc)+E(xc)   XCENC  =         8.42092510
  PAW double counting   =      1411.57270002    -1429.59340502
  entropy T*S    EENTRO =        -0.01761138
  eigenvalues    EBANDS =        53.13759204
  atomic energy  EATOM  =      1188.58965621
  Solvation  Ediel_sol  =         0.00000000
  ---------------------------------------------------
  free energy    TOTEN  =       -16.44432629 eV

  energy without entropy =      -16.42671491  energy(sigma->0) =      -16.43845583


--------------------------------------------------------------------------------------------------------




 average (electrostatic) potential at core
  the test charge radii are     1.0103
  (the norm of the test charge is              1.0000)
       1 -43.6341       2 -43.6353
 
 
 
 E-fermi :   5.4440     XC(G=0): -12.9603     alpha+bet :-13.2519


 spin component 1

 k-point     1 :       0.0833    0.0833    0.0833
  band No.  band energies     occupation 
      1      -2.2967      1.00000
      2       1.0286      1.00000
      3       1.0286      1.00000
      4       3.1650      1.00000
      5       3.1650      1.00000
      6       3.5053      1.00000
      7       4.3889      1.00000
      8       4.3889      1.00000
      9       4.9751      1.00225
     10       5.4543      0.45649
     11       5.4543      0.45649
     12      14.5622      0.00000
     13      14.5622      0.00000
     14      15.1627      0.00000
     15      22.1895      0.00000
     16      22.1895      0.00000
     17      26.9123      0.00000
     18      28.3437      0.00000
     19      28.3437      0.00000
     20      30.6734      0.00000
     21      32.7416      0.00000
     22      35.2986      0.00000
     23      35.2986      0.00000
     24      36.7824      0.00000
     25      36.7824      0.00000
     26      41.0865      0.00000
     27      41.4096      0.00000
     28      41.4096      0.00000
     29      42.7062      0.00000
     30      48.3413      0.00000
     31      50.3378      0.00000
     32      50.3378      0.00000

 k-point     2 :       0.2500    0.0833    0.0833
  band No.  band energies     occupation 
      1      -1.2557      1.00000
      2       1.4098      1.00000
      3       1.4418      1.00000
      4       3.0508      1.00000
      5       3.1035      1.00000
      6       3.9418      1.00000
      7       4.0480      1.00000
      8       4.1746      1.00000
      9       4.5876      1.00000
     10       4.7716      1.00001
     11       5.3935      0.70639
     12      10.5787     -0.00000
     13      16.2189      0.00000
     14      16.6181      0.00000
     15      22.7843      0.00000
     16      24.3645      0.00000
     17      24.7093      0.00000
     18      26.0515      0.00000
     19      29.5440      0.00000
     20      30.7573      0.00000
     21      30.8929      0.00000
     22      32.7315      0.00000
     23      35.2815      0.00000
     24      38.9509      0.00000
     25      39.5804      0.00000
     26      40.9673      0.00000
     27      43.7404      0.00000
     28      44.7150      0.00000
     29      45.5011      0.00000
     30      45.5495      0.00000
     31      46.9435      0.00000
     32      51.6461      0.00000

 k-point     3 :       0.4167    0.0833    0.0833
  band No.  band energies     occupation 
      1       0.3985      1.00000
      2       1.4974      1.00000
      3       2.1460      1.00000
      4       2.8467      1.00000
      5       3.2089      1.00000
      6       3.5496      1.00000
      7       3.7395      1.00000
      8       4.0525      1.00000
      9       4.4812      1.00000
     10       4.9804      1.00251
     11       5.1093      1.01970
     12       6.9999     -0.00000
     13      18.7343      0.00000
     14      19.1978      0.00000
     15      21.5533      0.00000
     16      22.4169      0.00000
     17      24.1785      0.00000
     18      25.7935      0.00000
     19      26.5871      0.00000
     20      28.1064      0.00000
     21      33.8175      0.00000
     22      35.9503      0.00000
     23      37.5178      0.00000
     24      37.9507      0.00000
     25      40.3922      0.00000
     26      41.1649      0.00000
     27      42.7187      0.00000
     28      44.6241      0.00000
     29      46.9343      0.00000
     30      47.9119      0.00000
     31      49.0613      0.00000
     32      51.2586      0.00000

 k-point     4 :      -0.4167    0.0833    0.0833
  band No.  band energies     occupation 
      1       0.3985      1.00000
      2       1.4974      1.00000
      3       2.1460      1.00000
      4       2.8467      1.00000
      5       3.2089      1.00000
      6       3.5496      1.00000
      7       3.7395      1.00000
      8       4.0525      1.00000
      9       4.4812      1.00000
     10       4.9804      1.00251
     11       5.1093      1.01970
     12       6.9999     -0.00000
     13      18.7343      0.00000
     14      19.1978      0.00000
     15      21.5533      0.00000
     16      22.4169      0.00000
     17      24.1785      0.00000
     18      25.7935      0.00000
     19      26.5871      0.00000
     20      28.1064      0.00000
     21      33.8175      0.00000
     22      35.9503      0.00000
     23      37.5178      0.00000
     24      37.9507      0.00000
     25      40.3922      0.00000
     26      41.1649      0.00000
     27      42.7187      0.00000
     28      44.6241      0.00000
     29      46.9343      0.00000
     30      47.9119      0.00000
     31      49.0613      0.00000
     32      51.2586      0.00000

 k-point     5 :      -0.2500    0.0833    0.0833
  band No.  band energies     occupation 
      1      -1.2557      1.00000
      2       1.4098      1.00000
      3       1.4418      1.00000
      4       3.0508      1.00000
      5       3.1035      1.00000
      6       3.9418      1.00000
      7       4.0480      1.00000
      8       4.1746      1.00000
      9       4.5876      1.00000
     10       4.7716      1.00001
     11       5.3935      0.70639
     12      10.5787     -0.00000
     13      16.2189      0.00000
     14      16.6181      0.00000
     15      22.7843      0.00000
     16      24.3645      0.00000
     17      24.7093      0.00000
     18      26.0515      0.00000
     19      29.5440      0.00000
     20      30.7573      0.00000
     21      30.8929      0.00000
     22      32.7315      0.00000
     23      35.2815      0.00000
     24      38.9509      0.00000
     25      39.5804      0.00000
     26      40.9673      0.00000
     27      43.7404      0.00000
     28      44.7150      0.00000
     29      45.5011      0.00000
     30      45.5495      0.00000
     31      46.9435      0.00000
     32      51.6461      0.00000

 k-point     6 :      -0.0833    0.0833    0.0833
  band No.  band energies     occupation 
      1      -2.2967      1.00000
      2       1.0286      1.00000
      3       1.0286      1.00000
      4       3.1650      1.00000
      5       3.1650      1.00000
      6       3.5053      1.00000
      7       4.3889      1.00000
      8       4.3889      1.00000
      9       4.9751      1.00225
     10       5.4543      0.45649
     11       5.4543      0.45649
     12      14.5622      0.00000
     13      14.5622      0.00000
     14      15.1627      0.00000
     15      22.1895      0.00000
     16      22.1895      0.00000
     17      26.9123      0.00000
     18      28.3437      0.00000
     19      28.3437      0.00000
     20      30.6734      0.00000
     21      32.7416      0.00000
     22      35.2986      0.00000
     23      35.2986      0.00000
     24      36.7824      0.00000
     25      36.7824      0.00000
     26      41.0865      0.00000
     27      41.4096      0.00000
     28      41.4096      0.00000
     29      42.7062      0.00000
     30      48.3413      0.00000
     31      50.3378      0.00000
     32      50.3378      0.00000

 k-point     7 :       0.0833    0.2500    0.0833
  band No.  band energies     occupation 
      1      -1.2557      1.00000
      2       1.4098      1.00000
      3       1.4418      1.00000
      4       3.0508      1.00000
      5       3.1035      1.00000
      6       3.9418      1.00000
      7       4.0480      1.00000
      8       4.1746      1.00000
      9       4.5876      1.00000
     10       4.7716      1.00001
     11       5.3935      0.70639
     12      10.5787     -0.00000
     13      16.2189      0.00000
     14      16.6181      0.00000
     15      22.7843      0.00000
     16      24.3645      0.00000
     17      24.7093      0.00000
     18      26.0515      0.00000
     19      29.5440      0.00000
     20      30.7573      0.00000
     21      30.8929      0.00000
     22      32.7315      0.00000
     23      35.2815      0.00000
     24      38.9509      0.00000
     25      39.5804      0.00000
     26      40.9673      0.00000
     27      43.7404      0.00000
     28      44.7150      0.00000
     29      45.5011      0.00000
     30      45.5495      0.00000
     31      46.9435      0.00000
     32      51.6461      0.00000

 k-point     8 :       0.2500    0.2500    0.0833
  band No.  band energies     occupation 
      1      -0.3753      1.00000
      2       1.5283      1.00000
      3       1.9704      1.00000
      4       2.6908      1.00000
      5       2.9915      1.00000
      6       3.3631      1.00000
      7       4.2852      1.00000
      8       4.4240      1.00000
      9       4.4910      1.00000
     10       4.6134      1.00000
     11       5.5524      0.10790
     12      10.8051     -0.00000
     13      13.2154      0.00000
     14      17.6809      0.00000
     15      21.0992      0.00000
     16      23.9305      0.00000
     17      25.2345      0.00000
     18      27.6388      0.00000
     19      28.1879      0.00000
     20      30.4548      0.00000
     21      32.0970      0.00000
     22      34.1080      0.00000
     23      36.2640      0.00000
     24      36.3617      0.00000
     25      39.1776      0.00000
     26      41.8004      0.00000
     27      42.1181      0.00000
     28      45.7966      0.00000
     29      48.1933      0.00000
     30      50.0178      0.00000
     31      50.0597      0.00000
     32      52.0097      0.00000

 k-point     9 :       0.4167    0.2500    0.0833
  band No.  band energies     occupation 
      1       0.7488      1.00000
      2       1.3810      1.00000
      3       2.5688      1.00000
      4       2.5695      1.00000
      5       2.9507      1.00000
      6       3.1233      1.00000
      7       4.1946      1.00000
      8       4.2500      1.00000
      9       4.8015      1.00003
     10       5.3728      0.78135
     11       5.4992      0.27615
     12       7.7028     -0.00000
     13      14.7262      0.00000
     14      17.5440      0.00000
     15      19.8341      0.00000
     16      22.6011      0.00000
     17      25.0424      0.00000
     18      26.5534      0.00000
     19      29.9474      0.00000
     20      30.3378      0.00000
     21      32.6450      0.00000
     22      33.7900      0.00000
     23      35.7364      0.00000
     24      37.2106      0.00000
     25      40.0799      0.00000
     26      43.4317      0.00000
     27      45.0772      0.00000
     28      47.3638      0.00000
     29      47.6855      0.00000
     30      51.1792      0.00000
     31      51.7818      0.00000
     32      52.4733      0.00000

 k-point    10 :      -0.4167    0.2500    0.0833
  band No.  band energies     occupation 
      1       0.7488      1.00000
      2       1.3810      1.00000
      3       2.5688      1.00000
      4       2.5695      1.00000
      5       2.9507      1.00000
      6       3.1233      1.00000
      7       4.1946      1.00000
      8       4.2500      1.00000
      9       4.8015      1.00003
     10       5.3728      0.78135
     11       5.4992      0.27615
     12       7.7028     -0.00000
     13      14.7262      0.00000
     14      17.5440      0.00000
     15      19.8341      0.00000
     16      22.6011      0.00000
     17      25.0424      0.00000
     18      26.5534      0.00000
     19      29.9474      0.00000
     20      30.3378      0.00000
     21      32.6450      0.00000
     22      33.7900      0.00000
     23      35.7364      0.00000
     24      37.2106      0.00000
     25      40.0799      0.00000
     26      43.4317      0.00000
     27      45.0772      0.00000
     28      47.3638      0.00000
     29      47.6855      0.00000
     30      51.1792      0.00000
     31      51.7818      0.00000
     32      52.4733      0.00000

 k-point    11 :      -0.2500    0.2500    0.0833
  band No.  band energies     occupation 
      1      -0.3753      1.00000
      2       1.5283      1.00000
      3       1.9704      1.00000
      4       2.6908      1.00000
      5       2.9915      1.00000
      6       3.3631      1.00000
      7       4.2852      1.00000
      8       4.4240      1.00000
      9       4.4910      1.00000
     10       4.6134      1.00000
     11       5.5524      0.10790
[...]
      8       6.0287     -0.00014
      9       6.5444     -0.00000
     10       7.1274     -0.00000
     11       7.6872     -0.00000
     12       8.7574     -0.00000
     13      19.4570      0.00000
     14      19.8111      0.00000
     15      22.1305      0.00000
     16      22.9719      0.00000
     17      24.6404      0.00000
     18      26.2219      0.00000
     19      26.9171      0.00000
     20      28.5225      0.00000
     21      34.2001      0.00000
     22      36.3866      0.00000
     23      37.7898      0.00000
     24      38.5715      0.00000
     25      40.8311      0.00000
     26      41.5054      0.00000
     27      43.1095      0.00000
     28      45.0650      0.00000
     29      47.6367      0.00000
     30      48.0777      0.00000
     31      49.5990      0.00000
     32      51.9752      0.00000

 k-point   104 :       0.2500   -0.0833    0.4167
  band No.  band energies     occupation 
      1       1.3440      1.00000
      2       2.6354      1.00000
      3       4.2538      1.00000
      4       4.3361      1.00000
      5       4.6696      1.00000
      6       4.6869      1.00000
      7       6.4360     -0.00000
      8       6.6366     -0.00000
      9       7.2850     -0.00000
     10       7.6050     -0.00000
     11       7.6564     -0.00000
     12       9.2304     -0.00000
     13      15.7033      0.00000
     14      18.3410      0.00000
     15      20.4160      0.00000
     16      23.0305      0.00000
     17      25.3748      0.00000
     18      26.9178      0.00000
     19      30.3097      0.00000
     20      30.6541      0.00000
     21      33.0092      0.00000
     22      34.1419      0.00000
     23      36.0882      0.00000
     24      37.6983      0.00000
     25      40.7186      0.00000
     26      43.6366      0.00000
     27      45.4800      0.00000
     28      47.8748      0.00000
     29      48.0508      0.00000
     30      51.9324      0.00000
     31      52.3716      0.00000
     32      52.6808      0.00000

 k-point   105 :       0.4167   -0.0833    0.4167
  band No.  band energies     occupation 
      1       1.9361      1.00000
      2       2.3176      1.00000
      3       3.9884      1.00000
      4       4.0815      1.00000
      5       5.2434      1.02547
      6       5.2986      0.96902
      7       6.8443     -0.00000
      8       6.9961     -0.00000
      9       7.3611     -0.00000
     10       7.6977     -0.00000
     11       8.1440     -0.00000
     12       8.9256     -0.00000
     13      13.9793      0.00000
     14      15.2651      0.00000
     15      21.8322      0.00000
     16      23.2484      0.00000
     17      25.2956      0.00000
     18      25.3197      0.00000
     19      30.0178      0.00000
     20      30.2918      0.00000
     21      33.9966      0.00000
     22      35.1362      0.00000
     23      36.3714      0.00000
     24      39.7856      0.00000
     25      41.3933      0.00000
     26      43.3398      0.00000
     27      47.6954      0.00000
     28      48.4905      0.00000
     29      50.6967      0.00000
     30      51.3488      0.00000
     31      54.0718      0.00000
     32      54.4472      0.00000

 k-point   106 :      -0.4167   -0.0833    0.4167
  band No.  band energies     occupation 
      1       1.9361      1.00000
      2       2.3176      1.00000
      3       3.9884      1.00000
      4       4.0815      1.00000
      5       5.2434      1.02547
      6       5.2986      0.96902
      7       6.8443     -0.00000
      8       6.9961     -0.00000
      9       7.3611     -0.00000
     10       7.6977     -0.00000
     11       8.1440     -0.00000
     12       8.9256     -0.00000
     13      13.9793      0.00000
     14      15.2651      0.00000
     15      21.8322      0.00000
     16      23.2484      0.00000
     17      25.2956      0.00000
     18      25.3197      0.00000
     19      30.0178      0.00000
     20      30.2918      0.00000
     21      33.9966      0.00000
     22      35.1362      0.00000
     23      36.3714      0.00000
     24      39.7856      0.00000
     25      41.3933      0.00000
     26      43.3398      0.00000
     27      47.6954      0.00000
     28      48.4905      0.00000
     29      50.6967      0.00000
     30      51.3488      0.00000
     31      54.0718      0.00000
     32      54.4472      0.00000

 k-point   107 :      -0.2500   -0.0833    0.4167
  band No.  band energies     occupation 
      1       1.3440      1.00000
      2       2.6354      1.00000
      3       4.2538      1.00000
      4       4.3361      1.00000
      5       4.6696      1.00000
      6       4.6869      1.00000
      7       6.4360     -0.00000
      8       6.6366     -0.00000
      9       7.2850     -0.00000
     10       7.6050     -0.00000
     11       7.6564     -0.00000
     12       9.2304     -0.00000
     13      15.7033      0.00000
     14      18.3410      0.00000
     15      20.4160      0.00000
     16      23.0305      0.00000
     17      25.3748      0.00000
     18      26.9178      0.00000
     19      30.3097      0.00000
     20      30.6541      0.00000
     21      33.0092      0.00000
     22      34.1419      0.00000
     23      36.0882      0.00000
     24      37.6983      0.00000
     25      40.7186      0.00000
     26      43.6366      0.00000
     27      45.4800      0.00000
     28      47.8748      0.00000
     29      48.0508      0.00000
     30      51.9324      0.00000
     31      52.3716      0.00000
     32      52.6808      0.00000

 k-point   108 :      -0.0833   -0.0833    0.4167
  band No.  band energies     occupation 
      1       0.7208      1.00000
      2       2.4880      1.00000
      3       4.1470      1.00000
      4       4.8187      1.00005
      5       5.0140      1.00478
      6       5.4087      0.64688
      7       5.9561     -0.00088
      8       6.0287     -0.00014
      9       6.5444     -0.00000
     10       7.1274     -0.00000
     11       7.6872     -0.00000
     12       8.7574     -0.00000
     13      19.4570      0.00000
     14      19.8111      0.00000
     15      22.1305      0.00000
     16      22.9719      0.00000
     17      24.6404      0.00000
     18      26.2219      0.00000
     19      26.9171      0.00000
     20      28.5225      0.00000
     21      34.2001      0.00000
     22      36.3866      0.00000
     23      37.7898      0.00000
     24      38.5715      0.00000
     25      40.8311      0.00000
     26      41.5054      0.00000
     27      43.1095      0.00000
     28      45.0650      0.00000
     29      47.6367      0.00000
     30      48.0777      0.00000
     31      49.5990      0.00000
     32      51.9752      0.00000


--------------------------------------------------------------------------------------------------------


 soft charge-density along one line, spin component           1
         0         1         2         3         4         5         6         7         8         9
 total charge-density along one line
 
 soft charge-density along one line, spin component           2
         0         1         2         3         4         5         6         7         8         9
 total charge-density along one line
 
 pseudopotential strength for first ion, spin component:           1
 -5.807   0.000   0.000   0.000  -0.000  -6.332   0.000   0.000
  0.000  -5.807  -0.000  -0.000   0.000   0.000  -6.332  -0.000
  0.000  -0.000  -5.982  -0.000  -0.000   0.000  -0.000  -6.502
  0.000  -0.000  -0.000  -5.807  -0.000   0.000  -0.000  -0.000
 -0.000   0.000  -0.000  -0.000  -5.982  -0.000   0.000  -0.000
 -6.332   0.000   0.000   0.000  -0.000  -6.815   0.000   0.000
  0.000  -6.332  -0.000  -0.000   0.000   0.000  -6.815  -0.000
  0.000  -0.000  -6.502  -0.000  -0.000   0.000  -0.000  -6.980
  0.000  -0.000  -0.000  -6.332  -0.000   0.000  -0.000  -0.000
 -0.000   0.000  -0.000  -0.000  -6.502  -0.000   0.000  -0.000
  0.000   0.000  -0.000  -0.000   0.000   0.000   0.000  -0.000
  0.000   0.000  -0.000  -0.000   0.000   0.000   0.000  -0.000
  0.000   0.000  -0.000   0.000  -0.000   0.000   0.000  -0.000
  0.000   0.000   0.000   0.000  -0.000   0.000   0.000   0.000
  0.000   0.000  -0.000   0.000   0.000   0.000   0.000  -0.000
  0.000   0.000   0.000   0.000  -0.000   0.000   0.000   0.000
  0.000   0.000   0.000   0.000  -0.000   0.000   0.000   0.000
 -0.000   0.000  -0.000   0.000   0.000  -0.000   0.000  -0.000
 pseudopotential strength for first ion, spin component:           2
 -4.345   0.000  -0.000  -0.000   0.000  -4.916   0.000  -0.000
  0.000  -4.345   0.000  -0.000  -0.000   0.000  -4.916   0.000
 -0.000   0.000  -4.113  -0.000   0.000  -0.000   0.000  -4.689
 -0.000  -0.000  -0.000  -4.345  -0.000  -0.000  -0.000  -0.000
  0.000  -0.000   0.000  -0.000  -4.113   0.000  -0.000   0.000
 -4.916   0.000  -0.000  -0.000   0.000  -5.443   0.000  -0.000
  0.000  -4.916   0.000  -0.000  -0.000   0.000  -5.443   0.000
 -0.000   0.000  -4.689  -0.000   0.000  -0.000   0.000  -5.222
 -0.000  -0.000  -0.000  -4.916  -0.000  -0.000  -0.000  -0.000
  0.000  -0.000   0.000  -0.000  -4.689   0.000  -0.000   0.000
 -0.000   0.000   0.000   0.000  -0.000  -0.000   0.000   0.000
 -0.000   0.000   0.000   0.000  -0.000  -0.000   0.000   0.000
  0.000   0.000   0.000  -0.000  -0.000   0.000   0.000   0.000
 -0.000   0.000   0.000   0.000   0.000  -0.000   0.000   0.000
 -0.000  -0.000  -0.000   0.000   0.000  -0.000  -0.000  -0.000
  0.000   0.000   0.000  -0.000  -0.000   0.000   0.000   0.000
 -0.000  -0.000   0.000   0.000   0.000  -0.000  -0.000   0.000
 -0.000  -0.000  -0.000   0.000   0.000  -0.000  -0.000  -0.000
 total augmentation occupancy for first ion, spin component:           1
  2.250  -0.000   0.000  -0.000  -0.000  -1.189   0.000  -0.000   0.000   0.000   0.000  -0.000   0.000   0.000   0.000  -0.000
 -0.000   2.250   0.000  -0.000   0.000   0.000  -1.189   0.000   0.000  -0.000   0.000  -0.000   0.000   0.000  -0.000  -0.000
  0.000   0.000   3.582   0.000  -0.000  -0.000   0.000  -2.248  -0.000   0.000   0.000  -0.000  -0.000  -0.000   0.000  -0.000
 -0.000  -0.000   0.000   2.250   0.000   0.000   0.000  -0.000  -1.189   0.000   0.000  -0.000  -0.000   0.000   0.000   0.000
 -0.000   0.000  -0.000   0.000   3.582   0.000  -0.000   0.000   0.000  -2.248  -0.000   0.000  -0.000   0.000  -0.000   0.000
 -1.189   0.000  -0.000   0.000   0.000   1.515  -0.000   0.000  -0.000  -0.000   0.000  -0.000   0.000   0.000  -0.000  -0.000
  0.000  -1.189   0.000   0.000  -0.000  -0.000   1.515  -0.000  -0.000   0.000  -0.000   0.000   0.000   0.000  -0.000  -0.000
 -0.000   0.000  -2.248  -0.000   0.000   0.000  -0.000   2.176   0.000  -0.000  -0.000   0.000  -0.000   0.000  -0.000   0.000
  0.000   0.000  -0.000  -1.189   0.000  -0.000  -0.000   0.000   1.515  -0.000   0.000  -0.000   0.000  -0.000  -0.000  -0.000
  0.000  -0.000   0.000   0.000  -2.248  -0.000   0.000  -0.000  -0.000   2.176   0.000  -0.000   0.000  -0.000   0.000  -0.000
  0.000   0.000   0.000   0.000  -0.000   0.000  -0.000  -0.000   0.000   0.000   2.339  -0.267   0.000  -0.000  -0.000   0.000
 -0.000  -0.000  -0.000  -0.000   0.000  -0.000   0.000   0.000  -0.000  -0.000  -0.267   0.036  -0.000   0.000   0.000   0.000
  0.000   0.000  -0.000  -0.000  -0.000   0.000   0.000  -0.000   0.000   0.000   0.000  -0.000   0.284  -0.000  -0.000  -0.025
  0.000   0.000  -0.000   0.000   0.000   0.000   0.000   0.000  -0.000  -0.000  -0.000   0.000  -0.000   0.284   0.000   0.000
  0.000  -0.000   0.000   0.000  -0.000  -0.000  -0.000  -0.000  -0.000   0.000  -0.000   0.000  -0.000   0.000   0.284   0.000
 -0.000  -0.000  -0.000   0.000   0.000  -0.000  -0.000   0.000  -0.000  -0.000   0.000   0.000  -0.025   0.000   0.000   0.002
 -0.000   0.000   0.000  -0.000  -0.000  -0.000  -0.000  -0.000  -0.000   0.000   0.000  -0.000   0.000  -0.025  -0.000  -0.000
 -0.000   0.000  -0.000   0.000   0.000   0.000   0.000   0.000   0.000  -0.000   0.000  -0.000   0.000  -0.000  -0.025  -0.000
 total augmentation occupancy for first ion, spin component:           2
  1.899  -0.000   0.000   0.000  -0.000  -0.800  -0.000  -0.000  -0.000   0.000   0.000  -0.000   0.000   0.000   0.000  -0.000
 -0.000   1.899   0.000   0.000   0.000  -0.000  -0.800  -0.000  -0.000  -0.000   0.000  -0.000   0.000  -0.000  -0.000  -0.000
  0.000   0.000   3.115   0.000  -0.000   0.000  -0.000  -1.403  -0.000   0.000   0.000  -0.000   0.000  -0.000   0.000  -0.000
  0.000   0.000   0.000   1.899   0.000  -0.000  -0.000  -0.000  -0.800  -0.000   0.000  -0.000  -0.000  -0.000  -0.000   0.000
 -0.000   0.000  -0.000   0.000   3.115   0.000   0.000   0.000  -0.000  -1.403  -0.000   0.000  -0.000   0.000  -0.000   0.000
 -0.800  -0.000   0.000  -0.000   0.000   0.096   0.000  -0.000   0.000   0.000  -0.000   0.000   0.000   0.000  -0.000  -0.000
 -0.000  -0.800  -0.000  -0.000   0.000   0.000   0.096   0.000   0.000  -0.000  -0.000   0.000   0.000   0.000  -0.000  -0.000
 -0.000  -0.000  -1.403  -0.000   0.000  -0.000   0.000   0.410   0.000  -0.000  -0.000   0.000  -0.000   0.000  -0.000   0.000
 -0.000  -0.000  -0.000  -0.800  -0.000   0.000   0.000   0.000   0.096   0.000   0.000  -0.000  -0.000  -0.000  -0.000   0.000
  0.000  -0.000   0.000  -0.000  -1.403   0.000  -0.000  -0.000   0.000   0.410   0.000  -0.000   0.000  -0.000   0.000  -0.000
  0.000   0.000   0.000   0.000  -0.000  -0.000  -0.000  -0.000   0.000   0.000  -0.328   0.098   0.000  -0.000  -0.000   0.000
 -0.000  -0.000  -0.000  -0.000   0.000   0.000   0.000   0.000  -0.000  -0.000   0.098  -0.017  -0.000   0.000   0.000  -0.000
  0.000   0.000   0.000  -0.000  -0.000   0.000   0.000  -0.000  -0.000   0.000   0.000  -0.000  -0.042  -0.000  -0.000   0.006
  0.000  -0.000  -0.000  -0.000   0.000   0.000   0.000   0.000  -0.000  -0.000  -0.000   0.000  -0.000  -0.042   0.000   0.000
  0.000  -0.000   0.000  -0.000  -0.000  -0.000  -0.000  -0.000  -0.000   0.000  -0.000   0.000  -0.000   0.000  -0.042  -0.000
 -0.000  -0.000  -0.000   0.000   0.000  -0.000  -0.000   0.000   0.000  -0.000   0.000  -0.000   0.006   0.000  -0.000  -0.001
 -0.000   0.000   0.000  -0.000  -0.000  -0.000  -0.000  -0.000   0.000   0.000   0.000  -0.000   0.000   0.006  -0.000  -0.000
 -0.000   0.000  -0.000   0.000   0.000   0.000   0.000   0.000   0.000  -0.000   0.000  -0.000   0.000  -0.000   0.006  -0.000


------------------------ aborting loop because EDIFF is reached ----------------------------------------


    CHARGE:  cpu time    0.0120: real time    0.0125
    FORLOC:  cpu time    0.0000: real time    0.0000
    FORNL :  cpu time    0.0340: real time    0.0340
    STRESS:  cpu time    0.1830: real time    0.1825
    FORCOR:  cpu time    0.0030: real time    0.0030
    FORHAR:  cpu time    0.0000: real time    0.0007
    MIXING:  cpu time    0.0000: real time    0.0003
    OFIELD:  cpu time    0.0000: real time    0.0000

  FORCE on cell =-STRESS in cart. coord.  units (eV):
  Direction    XX          YY          ZZ          XY          YZ          ZX
  --------------------------------------------------------------------------------------
  Alpha Z   118.17525   118.17525   118.17525
  Ewald    -390.89368  -390.89368  -390.89368     0.00000     0.00000     0.00000
  Hartree    64.66547    64.66547    64.66547     0.00000     0.00000    -0.00000
  E(xc)     -79.15234   -79.15234   -79.15234     0.00000     0.00000     0.00000
  Local     116.15004   116.15004   116.15004    -0.00000    -0.00000     0.00000
  n-local   -52.09975   -52.09975   -52.09975    -0.00000    -0.00000    -0.00000
  augment    77.57598    77.57598    77.57598     0.00000     0.00000    -0.00000
  Kinetic   144.55162   144.55162   144.55162     0.00000    -0.00000     0.00000
  Fock        0.00000     0.00000     0.00000     0.00000     0.00000     0.00000
  -------------------------------------------------------------------------------------
  Total      -1.02742    -1.02741    -1.02741    -0.00000    -0.00000    -0.00000
  in kB     -70.36528   -70.36522   -70.36527    -0.00001    -0.00002    -0.00000
  external pressure =      -70.37 kB  Pullay stress =        0.00 kB


 VOLUME and BASIS-vectors are now :
 -----------------------------------------------------------------------------
  energy-cutoff  :      350.00
  volume of cell :       23.39
      direct lattice vectors                 reciprocal lattice vectors
     2.860000000  0.000000000  0.000000000     0.349650350  0.000000000  0.000000000
     0.000000000  2.860000000  0.000000000     0.000000000  0.349650350  0.000000000
     0.000000000  0.000000000  2.860000000     0.000000000  0.000000000  0.349650350

  length of vectors
     2.860000000  2.860000000  2.860000000     0.349650350  0.349650350  0.349650350


 FORCES acting on ions
    electron-ion (+dipol)            ewald-force                    non-local-force                 convergence-correction
 -----------------------------------------------------------------------------------------------
   0.138E-07 -.524E-07 0.782E-07   0.219E-14 -.742E-15 -.130E-14   0.574E-07 -.329E-07 0.767E-07   -.732E-07 0.255E-07 -.973E-07
   0.164E-07 0.207E-07 0.210E-07   -.209E-14 0.143E-14 -.194E-15   0.260E-07 -.327E-08 0.363E-07   -.571E-07 -.174E-07 -.343E-07
 -----------------------------------------------------------------------------------------------
   0.302E-07 -.316E-07 0.991E-07   0.102E-15 0.685E-15 -.150E-14   0.834E-07 -.362E-07 0.113E-06   -.130E-06 0.813E-08 -.132E-06
 
 
 POSITION                                       TOTAL-FORCE (eV/Angst)
 -----------------------------------------------------------------------------------
      0.00000      0.00000      0.00000         0.000000     -0.000000      0.000000
      1.43000      1.43000      1.43000        -0.000000      0.000000     -0.000000
 -----------------------------------------------------------------------------------
    total drift:                               -0.000000     -0.000000      0.000000


--------------------------------------------------------------------------------------------------------



  FREE ENERGIE OF THE ION-ELECTRON SYSTEM (eV)
  ---------------------------------------------------
  free  energy   TOTEN  =       -16.44432629 eV

  energy  without entropy=      -16.42671491  energy(sigma->0) =      -16.43845583
 


--------------------------------------------------------------------------------------------------------


    POTLOK:  cpu time    0.0100: real time    0.0105


--------------------------------------------------------------------------------------------------------




--------------------------------------------------------------------------------------------------------


  
 reached required accuracy - stopping structural energy minimisation
     LOOP+:  cpu time   52.9000: real time   53.2600
    4ORBIT:  cpu time    0.0000: real time    0.0000

 total amount of memory used by VASP on root node    37925. kBytes
========================================================================

   base      :      30000. kBytes
   nonl-proj :       5984. kBytes
   fftplans  :         46. kBytes
   grid      :        285. kBytes
   one-center:         62. kBytes
   wavefun   :       1548. kBytes
 
  
  
 General timing and accounting informations for this job:
 ========================================================
  
                  Total CPU time used (sec):       54.560
                            User time (sec):       51.828
                          System time (sec):        2.732
                         Elapsed time (sec):       55.365
  
                   Maximum memory used (kb):       79932.
                   Average memory used (kb):           0.
  
                          Minor page faults:      1102219
                          Major page faults:            0
                 Voluntary context switches:         3735
