 vasp.5.4.1 24Jun15 (build May 02 2016 14:41:14) complex                        
  
 executed on           IFC91_ompi date 2025.11.12  12:15:48
 running on   32 total cores
 distrk:  each k-point on   32 cores,    1 groups
 distr:  one band on NCORES_PER_BAND=   1 cores,   32 groups


--------------------------------------------------------------------------------------------------------


 INCAR:
 POTCAR:    PAW_PBE Fe 06Sep2000                  

 ----------------------------------------------------------------------------- 
|                                                                             |
|           W    W    AA    RRRRR   N    N  II  N    N   GGGG   !!!           |
|           W    W   A  A   R    R  NN   N  II  NN   N  G    G  !!!           |
|           W    W  A    A  R    R  N N  N  II  N N  N  G       !!!           |
|           W WW W  AAAAAA  RRRRR   N  N N  II  N  N N  G  GGG   !            |
|           WW  WW  A    A  R   R   N   NN  II  N   NN  G    G                |
|           W    W  A    A  R    R  N    N  II  N    N   GGGG   !!!           |
|                                                                             |
|      For optimal performance we recommend to set                            |
|        NCORE= 4 - approx SQRT( number of cores)                             |
|      NCORE specifies how many cores store one orbital (NPAR=cpu/NCORE).     |
|      This setting can  greatly improve the performance of VASP for DFT.     |
|      The default, NPAR=number of cores might be grossly inefficient         |
|      on modern multi-core architectures or massively parallel machines.     |
|      Do your own testing !!!!                                               |
|      Unfortunately you need to use the default for GW and RPA calculations. |
|      (for HF NCORE is supported but not extensively tested yet)             |
|                                                                             |
 ----------------------------------------------------------------------------- 

 POTCAR:    PAW_PBE Fe 06Sep2000                  
   VRHFIN =Fe:  d7 s1                                                           
   LEXCH  = PE                                                                  
   EATOM  =   594.3153 eV,   43.6809 Ry                                         
                                                                                
   TITEL  = PAW_PBE Fe 06Sep2000                                                
   LULTRA =        F    use ultrasoft PP ?                                      
   IUNSCR =        1    unscreen: 0-lin 1-nonlin 2-no                           
   RPACOR =    2.000    partial core radius                                     
   POMASS =   55.847; ZVAL   =    8.000    mass and valenz                      
   RCORE  =    2.300    outmost cutoff radius                                   
   RWIGS  =    2.460; RWIGS  =    1.302    wigner-seitz radius (au A)           
   ENMAX  =  267.882; ENMIN  =  200.911 eV                                      
   RCLOC  =    1.701    cutoff for local pot                                    
   LCOR   =        T    correct aug charges                                     
   LPAW   =        T    paw PP                                                  
   EAUG   =  511.368                                                            
   DEXC   =    0.000                                                            
   RMAX   =    2.356    core radius for proj-oper                               
   RAUG   =    1.300    factor for augmentation sphere                          
   RDEP   =    2.442    radius for radial grids                                 
   RDEPT  =    1.890    core radius for aug-charge                              
                                                                                
   Atomic configuration                                                         
    9 entries                                                                   
     n  l   j            E        occ.                                          
     1  0  0.50     -6993.8440   2.0000                                         
     2  0  0.50      -814.6047   2.0000                                         
     2  1  1.50      -693.3689   6.0000                                         
     3  0  0.50       -89.4732   2.0000                                         
     3  1  1.50       -55.6373   6.0000                                         
     3  2  2.50        -3.8151   7.0000                                         
     4  0  0.50        -4.2551   1.0000                                         
     4  1  1.50        -3.4015   0.0000                                         
     4  3  2.50        -1.3606   0.0000                                         
   Description                                                                  
     l       E           TYP  RCUT    TYP  RCUT                                 
     2     -3.8151135     23  2.300                                             
     2     -5.1756961     23  2.300                                             
     0     -4.2550963     23  2.300                                             
     0      7.2035603     23  2.300                                             
     1     -2.7211652     23  2.300                                             
     1     18.4316424     23  2.300                                             
  local pseudopotential read in
  partial core-charges read in
  partial kinetic energy density read in
  atomic valenz-charges read in
  non local Contribution for L=           2  read in
    real space projection operators read in
  non local Contribution for L=           2  read in
    real space projection operators read in
  non local Contribution for L=           0  read in
    real space projection operators read in
  non local Contribution for L=           0  read in
    real space projection operators read in
  non local Contribution for L=           1  read in
    real space projection operators read in
  non local Contribution for L=           1  read in
    real space projection operators read in
    PAW grid and wavefunctions read in
 
   number of l-projection  operators is LMAX  =           6
   number of lm-projection operators is LMMAX =          18
 
  PAW_PBE Fe 06Sep2000                  :
 energy of atom  1       EATOM= -594.3153
 kinetic energy error for atom=    0.0017 (will be added to EATOM!!)
 
 
 POSCAR: BCC Fe                                  
  positions in cartesian coordinates
  No initial velocities read in
 exchange correlation table for  LEXCH =        8
   RHO(1)=    0.500       N(1)  =     2000
   RHO(2)=  100.500       N(2)  =     4000
 


--------------------------------------------------------------------------------------------------------


 ion  position               nearest neighbor table
   1  0.000  0.000  0.000-   2 2.48   2 2.48   2 2.48   2 2.48   2 2.48   2 2.48   2 2.48   2 2.48

   2  0.500  0.500  0.500-   1 2.48   1 2.48   1 2.48   1 2.48   1 2.48   1 2.48   1 2.48   1 2.48

 

IMPORTANT INFORMATION: All symmetrisations will be switched off!
NOSYMM: (Re-)initialisation of all symmetry stuff for point group C_1.

 
 
 KPOINTS: Automatic mesh                          

Automatic generation of k-mesh.
Space group operators:
 irot       det(A)        alpha          n_x          n_y          n_z        tau_x        tau_y        tau_z
    1     1.000000     0.000001     1.000000     0.000000     0.000000     0.000000     0.000000     0.000000
 
 Subroutine IBZKPT returns following result:
 ===========================================
 
 Found    108 irreducible k-points:
 
 Following reciprocal coordinates:
            Coordinates               Weight
  0.083333  0.083333  0.083333      2.000000
  0.250000  0.083333  0.083333      2.000000
  0.416667  0.083333  0.083333      2.000000
 -0.416667  0.083333  0.083333      2.000000
 -0.250000  0.083333  0.083333      2.000000
 -0.083333  0.083333  0.083333      2.000000
  0.083333  0.250000  0.083333      2.000000
  0.250000  0.250000  0.083333      2.000000
  0.416667  0.250000  0.083333      2.000000
 -0.416667  0.250000  0.083333      2.000000
 -0.250000  0.250000  0.083333      2.000000
 -0.083333  0.250000  0.083333      2.000000
  0.083333  0.416667  0.083333      2.000000
  0.250000  0.416667  0.083333      2.000000
  0.416667  0.416667  0.083333      2.000000
 -0.416667  0.416667  0.083333      2.000000
 -0.250000  0.416667  0.083333      2.000000
 -0.083333  0.416667  0.083333      2.000000
  0.083333 -0.416667  0.083333      2.000000
  0.250000 -0.416667  0.083333      2.000000
  0.416667 -0.416667  0.083333      2.000000
 -0.416667 -0.416667  0.083333      2.000000
 -0.250000 -0.416667  0.083333      2.000000
 -0.083333 -0.416667  0.083333      2.000000
  0.083333 -0.250000  0.083333      2.000000
  0.250000 -0.250000  0.083333      2.000000
  0.416667 -0.250000  0.083333      2.000000
 -0.416667 -0.250000  0.083333      2.000000
 -0.250000 -0.250000  0.083333      2.000000
 -0.083333 -0.250000  0.083333      2.000000
  0.083333 -0.083333  0.083333      2.000000
  0.250000 -0.083333  0.083333      2.000000
  0.416667 -0.083333  0.083333      2.000000
 -0.416667 -0.083333  0.083333      2.000000
 -0.250000 -0.083333  0.083333      2.000000
 -0.083333 -0.083333  0.083333      2.000000
  0.083333  0.083333  0.250000      2.000000
  0.250000  0.083333  0.250000      2.000000
  0.416667  0.083333  0.250000      2.000000
 -0.416667  0.083333  0.250000      2.000000
 -0.250000  0.083333  0.250000      2.000000
 -0.083333  0.083333  0.250000      2.000000
  0.083333  0.250000  0.250000      2.000000
  0.250000  0.250000  0.250000      2.000000
  0.416667  0.250000  0.250000      2.000000
 -0.416667  0.250000  0.250000      2.000000
 -0.250000  0.250000  0.250000      2.000000
 -0.083333  0.250000  0.250000      2.000000
  0.083333  0.416667  0.250000      2.000000
  0.250000  0.416667  0.250000      2.000000
  0.416667  0.416667  0.250000      2.000000
 -0.416667  0.416667  0.250000      2.000000
 -0.250000  0.416667  0.250000      2.000000
 -0.083333  0.416667  0.250000      2.000000
  0.083333 -0.416667  0.250000      2.000000
  0.250000 -0.416667  0.250000      2.000000
  0.416667 -0.416667  0.250000      2.000000
 -0.416667 -0.416667  0.250000      2.000000
 -0.250000 -0.416667  0.250000      2.000000
 -0.083333 -0.416667  0.250000      2.000000
  0.083333 -0.250000  0.250000      2.000000
  0.250000 -0.250000  0.250000      2.000000
  0.416667 -0.250000  0.250000      2.000000
 -0.416667 -0.250000  0.250000      2.000000
 -0.250000 -0.250000  0.250000      2.000000
 -0.083333 -0.250000  0.250000      2.000000
  0.083333 -0.083333  0.250000      2.000000
  0.250000 -0.083333  0.250000      2.000000
  0.416667 -0.083333  0.250000      2.000000
 -0.416667 -0.083333  0.250000      2.000000
 -0.250000 -0.083333  0.250000      2.000000
 -0.083333 -0.083333  0.250000      2.000000
  0.083333  0.083333  0.416667      2.000000
  0.250000  0.083333  0.416667      2.000000
  0.416667  0.083333  0.416667      2.000000
 -0.416667  0.083333  0.416667      2.000000
 -0.250000  0.083333  0.416667      2.000000
 -0.083333  0.083333  0.416667      2.000000
  0.083333  0.250000  0.416667      2.000000
  0.250000  0.250000  0.416667      2.000000
  0.416667  0.250000  0.416667      2.000000
 -0.416667  0.250000  0.416667      2.000000
 -0.250000  0.250000  0.416667      2.000000
 -0.083333  0.250000  0.416667      2.000000
  0.083333  0.416667  0.416667      2.000000
  0.250000  0.416667  0.416667      2.000000
  0.416667  0.416667  0.416667      2.000000
 -0.416667  0.416667  0.416667      2.000000
 -0.250000  0.416667  0.416667      2.000000
 -0.083333  0.416667  0.416667      2.000000
  0.083333 -0.416667  0.416667      2.000000
  0.250000 -0.416667  0.416667      2.000000
  0.416667 -0.416667  0.416667      2.000000
 -0.416667 -0.416667  0.416667      2.000000
 -0.250000 -0.416667  0.416667      2.000000
 -0.083333 -0.416667  0.416667      2.000000
  0.083333 -0.250000  0.416667      2.000000
  0.250000 -0.250000  0.416667      2.000000
  0.416667 -0.250000  0.416667      2.000000
 -0.416667 -0.250000  0.416667      2.000000
 -0.250000 -0.250000  0.416667      2.000000
 -0.083333 -0.250000  0.416667      2.000000
  0.083333 -0.083333  0.416667      2.000000
  0.250000 -0.083333  0.416667      2.000000
  0.416667 -0.083333  0.416667      2.000000
 -0.416667 -0.083333  0.416667      2.000000
 -0.250000 -0.083333  0.416667      2.000000
 -0.083333 -0.083333  0.416667      2.000000
 
 Following cartesian coordinates:
            Coordinates               Weight
  0.083333  0.083333  0.083333      2.000000
  0.250000  0.083333  0.083333      2.000000
  0.416667  0.083333  0.083333      2.000000
 -0.416667  0.083333  0.083333      2.000000
 -0.250000  0.083333  0.083333      2.000000
 -0.083333  0.083333  0.083333      2.000000
  0.083333  0.250000  0.083333      2.000000
  0.250000  0.250000  0.083333      2.000000
  0.416667  0.250000  0.083333      2.000000
 -0.416667  0.250000  0.083333      2.000000
 -0.250000  0.250000  0.083333      2.000000
 -0.083333  0.250000  0.083333      2.000000
  0.083333  0.416667  0.083333      2.000000
  0.250000  0.416667  0.083333      2.000000
  0.416667  0.416667  0.083333      2.000000
 -0.416667  0.416667  0.083333      2.000000
 -0.250000  0.416667  0.083333      2.000000
 -0.083333  0.416667  0.083333      2.000000
  0.083333 -0.416667  0.083333      2.000000
  0.250000 -0.416667  0.083333      2.000000
  0.416667 -0.416667  0.083333      2.000000
 -0.416667 -0.416667  0.083333      2.000000
 -0.250000 -0.416667  0.083333      2.000000
 -0.083333 -0.416667  0.083333      2.000000
  0.083333 -0.250000  0.083333      2.000000
  0.250000 -0.250000  0.083333      2.000000
  0.416667 -0.250000  0.083333      2.000000
 -0.416667 -0.250000  0.083333      2.000000
 -0.250000 -0.250000  0.083333      2.000000
 -0.083333 -0.250000  0.083333      2.000000
  0.083333 -0.083333  0.083333      2.000000
  0.250000 -0.083333  0.083333      2.000000
  0.416667 -0.083333  0.083333      2.000000
 -0.416667 -0.083333  0.083333      2.000000
 -0.250000 -0.083333  0.083333      2.000000
 -0.083333 -0.083333  0.083333      2.000000
  0.083333  0.083333  0.250000      2.000000
  0.250000  0.083333  0.250000      2.000000
  0.416667  0.083333  0.250000      2.000000
 -0.416667  0.083333  0.250000      2.000000
 -0.250000  0.083333  0.250000      2.000000
 -0.083333  0.083333  0.250000      2.000000
  0.083333  0.250000  0.250000      2.000000
  0.250000  0.250000  0.250000      2.000000
  0.416667  0.250000  0.250000      2.000000
 -0.416667  0.250000  0.250000      2.000000
 -0.250000  0.250000  0.250000      2.000000
 -0.083333  0.250000  0.250000      2.000000
  0.083333  0.416667  0.250000      2.000000
  0.250000  0.416667  0.250000      2.000000
  0.416667  0.416667  0.250000      2.000000
 -0.416667  0.416667  0.250000      2.000000
 -0.250000  0.416667  0.250000      2.000000
 -0.083333  0.416667  0.250000      2.000000
  0.083333 -0.416667  0.250000      2.000000
  0.250000 -0.416667  0.250000      2.000000
  0.416667 -0.416667  0.250000      2.000000
 -0.416667 -0.416667  0.250000      2.000000
 -0.250000 -0.416667  0.250000      2.000000
 -0.083333 -0.416667  0.250000      2.000000
  0.083333 -0.250000  0.250000      2.000000
  0.250000 -0.250000  0.250000      2.000000
  0.416667 -0.250000  0.250000      2.000000
 -0.416667 -0.250000  0.250000      2.000000
 -0.250000 -0.250000  0.250000      2.000000
 -0.083333 -0.250000  0.250000      2.000000
  0.083333 -0.083333  0.250000      2.000000
  0.250000 -0.083333  0.250000      2.000000
  0.416667 -0.083333  0.250000      2.000000
 -0.416667 -0.083333  0.250000      2.000000
 -0.250000 -0.083333  0.250000      2.000000
 -0.083333 -0.083333  0.250000      2.000000
  0.083333  0.083333  0.416667      2.000000
  0.250000  0.083333  0.416667      2.000000
  0.416667  0.083333  0.416667      2.000000
 -0.416667  0.083333  0.416667      2.000000
 -0.250000  0.083333  0.416667      2.000000
 -0.083333  0.083333  0.416667      2.000000
  0.083333  0.250000  0.416667      2.000000
  0.250000  0.250000  0.416667      2.000000
  0.416667  0.250000  0.416667      2.000000
 -0.416667  0.250000  0.416667      2.000000
 -0.250000  0.250000  0.416667      2.000000
 -0.083333  0.250000  0.416667      2.000000
  0.083333  0.416667  0.416667      2.000000
  0.250000  0.416667  0.416667      2.000000
  0.416667  0.416667  0.416667      2.000000
 -0.416667  0.416667  0.416667      2.000000
 -0.250000  0.416667  0.416667      2.000000
 -0.083333  0.416667  0.416667      2.000000
  0.083333 -0.416667  0.416667      2.000000
  0.250000 -0.416667  0.416667      2.000000
  0.416667 -0.416667  0.416667      2.000000
 -0.416667 -0.416667  0.416667      2.000000
 -0.250000 -0.416667  0.416667      2.000000
 -0.083333 -0.416667  0.416667      2.000000
  0.083333 -0.250000  0.416667      2.000000
  0.250000 -0.250000  0.416667      2.000000
  0.416667 -0.250000  0.416667      2.000000
 -0.416667 -0.250000  0.416667      2.000000
 -0.250000 -0.250000  0.416667      2.000000
 -0.083333 -0.250000  0.416667      2.000000
  0.083333 -0.083333  0.416667      2.000000
  0.250000 -0.083333  0.416667      2.000000
  0.416667 -0.083333  0.416667      2.000000
 -0.416667 -0.083333  0.416667      2.000000
 -0.250000 -0.083333  0.416667      2.000000
 -0.083333 -0.083333  0.416667      2.000000
 


--------------------------------------------------------------------------------------------------------




 Dimension of arrays:
   k-points           NKPTS =    108   k-points in BZ     NKDIM =    108   number of bands    NBANDS=     32
   number of dos      NEDOS =    301   number of ions     NIONS =      2
   non local maximal  LDIM  =      6   non local SUM 2l+1 LMDIM =     18
   total plane-waves  NPLWV =   5832
   max r-space proj   IRMAX =      1   max aug-charges    IRDMAX=   9079
   dimension x,y,z NGX =    18 NGY =   18 NGZ =   18
   dimension x,y,z NGXF=    36 NGYF=   36 NGZF=   36
   support grid    NGXF=    36 NGYF=   36 NGZF=   36
   ions per type =               2
 NGX,Y,Z   is equivalent  to a cutoff of  10.46, 10.46, 10.46 a.u.
 NGXF,Y,Z  is equivalent  to a cutoff of  20.93, 20.93, 20.93 a.u.


 I would recommend the setting:
   dimension x,y,z NGX =    17 NGY =   17 NGZ =   17
 SYSTEM =  Fe Bulk                                 
 POSCAR =  BCC Fe                                  

 Startparameter for this run:
   NWRITE =      2    write-flag & timer
   PREC   = normal    normal or accurate (medium, high low for compatibility)
   ISTART =      0    job   : 0-new  1-cont  2-samecut
   ICHARG =      2    charge: 1-file 2-atom 10-const
   ISPIN  =      2    spin polarized calculation?
   LNONCOLLINEAR =      F non collinear calculations
   LSORBIT =      F    spin-orbit coupling
   INIWAV =      1    electr: 0-lowe 1-rand  2-diag
   LASPH  =      F    aspherical Exc in radial PAW
   METAGGA=      F    non-selfconsistent MetaGGA calc.

 Electronic Relaxation 1
   ENCUT  =  600.0 eV  44.10 Ry    6.64 a.u.   5.71  5.71  5.71*2*pi/ulx,y,z
   ENINI  =  600.0     initial cutoff
   ENAUG  =  511.4 eV  augmentation charge cutoff
   NELM   =     60;   NELMIN=  6; NELMDL= -5     # of ELM steps 
   EDIFF  = 0.1E-04   stopping-criterion for ELM
   LREAL  =      F    real-space projection
   NLSPLINE    = F    spline interpolate recip. space projectors
   LCOMPAT=      F    compatible to vasp.4.4
   GGA_COMPAT  = T    GGA compatible to vasp.4.4-vasp.4.6
   LMAXPAW     = -100 max onsite density
   LMAXMIX     =    2 max onsite mixed and CHGCAR
   VOSKOWN=      0    Vosko Wilk Nusair interpolation
   ROPT   =    0.00000
 Ionic relaxation
   EDIFFG = -.1E-01   stopping-criterion for IOM
   NSW    =     20    number of steps for IOM
   NBLOCK =      1;   KBLOCK =     20    inner block; outer block 
   IBRION =      2    ionic relax: 0-MD 1-quasi-New 2-CG
   NFREE  =      1    steps in history (QN), initial steepest desc. (CG)
   ISIF   =      2    stress and relaxation
   IWAVPR =     11    prediction:  0-non 1-charg 2-wave 3-comb
   ISYM   =      0    0-nonsym 1-usesym 2-fastsym
   LCORR  =      T    Harris-Foulkes like correction to forces

   POTIM  = 0.5000    time-step for ionic-motion
   TEIN   =    0.0    initial temperature
   TEBEG  =    0.0;   TEEND  =   0.0 temperature during run
   SMASS  =  -3.00    Nose mass-parameter (am)
   estimated Nose-frequenzy (Omega)   =  0.10E-29 period in steps =****** mass=  -0.187E-27a.u.
   SCALEE = 1.0000    scale energy and forces
   NPACO  =    256;   APACO  = 16.0  distance and # of slots for P.C.
   PSTRESS=    0.0 pullay stress

  Mass of Ions in am
   POMASS =  55.85
  Ionic Valenz
   ZVAL   =   8.00
  Atomic Wigner-Seitz radii
   RWIGS  =  -1.00
  virtual crystal weights 
   VCA    =   1.00
   NELECT =      16.0000    total number of electrons
   NUPDOWN=      -1.0000    fix difference up-down

 DOS related values:
   EMIN   =  10.00;   EMAX   =-10.00  energy-range for DOS
   EFERMI =   0.00
   ISMEAR =     1;   SIGMA  =   0.20  broadening in eV -4-tet -1-fermi 0-gaus

 Electronic relaxation 2 (details)
   IALGO  =     38    algorithm
   LDIAG  =      T    sub-space diagonalisation (order eigenvalues)
   LSUBROT=      F    optimize rotation matrix (better conditioning)
   TURBO    =      0    0=normal 1=particle mesh
   IRESTART =      0    0=no restart 2=restart with 2 vectors
   NREBOOT  =      0    no. of reboots
   NMIN     =      0    reboot dimension
   EREF     =   0.00    reference energy to select bands
   IMIX   =      4    mixing-type and parameters
     AMIX     =   0.40;   BMIX     =  1.00
     AMIX_MAG =   1.60;   BMIX_MAG =  1.00
     AMIN     =   0.10
     WC   =   100.;   INIMIX=   1;  MIXPRE=   1;  MAXMIX=  40

 Intra band minimization:
   WEIMIN = 0.0010     energy-eigenvalue tresh-hold
   EBREAK =  0.78E-07  absolut break condition
   DEPER  =   0.30     relativ break condition  

   TIME   =   0.40     timestep for ELM

  volume/ion in A,a.u.               =      11.70        78.93
  Fermi-wavevector in a.u.,A,eV,Ry     =   1.442388  2.725718 28.306695  2.080483
  Thomas-Fermi vector in A             =   2.560914
 
 Write flags
   LWAVE  =      F    write WAVECAR
   LCHARG =      F    write CHGCAR
   LVTOT  =      F    write LOCPOT, total local potential
   LVHAR  =      F    write LOCPOT, Hartree potential only
   LELF   =      F    write electronic localiz. function (ELF)
   LORBIT =      0    0 simple, 1 ext, 2 COOP (PROOUT)


 Dipole corrections
   LMONO  =      F    monopole corrections only (constant potential shift)
   LDIPOL =      F    correct potential (dipole corrections)
   IDIPOL =      0    1-x, 2-y, 3-z, 4-all directions 
   EPSILON=  1.0000000 bulk dielectric constant

 Exchange correlation treatment:
   GGA     =    PE    GGA type
   LEXCH   =     8    internal setting for exchange type
   VOSKOWN=      0    Vosko Wilk Nusair interpolation
   LHFCALC =     F    Hartree Fock is set to
   LHFONE  =     F    Hartree Fock one center treatment
   AEXX    =    0.0000 exact exchange contribution

 Linear response parameters
   LEPSILON=     F    determine dielectric tensor
   LRPA    =     F    only Hartree local field effects (RPA)
   LNABLA  =     F    use nabla operator in PAW spheres
   LVEL    =     F    velocity operator in full k-point grid
   LINTERFAST=   F  fast interpolation
   KINTER  =     0    interpolate to denser k-point grid
   CSHIFT  =0.1000    complex shift for real part using Kramers Kronig
   OMEGAMAX=  -1.0    maximum frequency
   DEG_THRESHOLD= 0.2000000E-02 threshold for treating states as degnerate
   RTIME   =    0.100 relaxation time in fs

 Orbital magnetization related:
   ORBITALMAG=     F  switch on orbital magnetization
   LCHIMAG   =     F  perturbation theory with respect to B field
   DQ        =  0.001000  dq finite difference perturbation B field



--------------------------------------------------------------------------------------------------------


 conjugate gradient relaxation of ions
 charge density and potential will be updated during run
 spin polarized calculation
 Variant of blocked Davidson
 Davidson routine will perform the subspace rotation
 perform sub-space diagonalisation
    after iterative eigenvector-optimisation
 modified Broyden-mixing scheme, WC =      100.0
 initial mixing is a Kerker type mixing with AMIX =  0.4000 and BMIX =      1.0000
 Hartree-type preconditioning will be used
 using additional bands           24
 reciprocal scheme for non local part
 use partial core corrections
 calculate Harris-corrections to forces 
   (improved forces if not selfconsistent)
 use gradient corrections 
 use of overlap-Matrix (Vanderbilt PP)
 Methfessel and Paxton  Order N= 1 SIGMA  =   0.20


--------------------------------------------------------------------------------------------------------


  energy-cutoff  :      600.00
  volume of cell :       23.39
      direct lattice vectors                 reciprocal lattice vectors
     2.860000000  0.000000000  0.000000000     0.349650350  0.000000000  0.000000000
     0.000000000  2.860000000  0.000000000     0.000000000  0.349650350  0.000000000
     0.000000000  0.000000000  2.860000000     0.000000000  0.000000000  0.349650350

  length of vectors
     2.860000000  2.860000000  2.860000000     0.349650350  0.349650350  0.349650350


 
 k-points in units of 2pi/SCALE and weight: Automatic mesh                          
   0.08333333  0.08333333  0.08333333       0.009
   0.25000000  0.08333333  0.08333333       0.009
   0.41666667  0.08333333  0.08333333       0.009
  -0.41666667  0.08333333  0.08333333       0.009
  -0.25000000  0.08333333  0.08333333       0.009
  -0.08333333  0.08333333  0.08333333       0.009
   0.08333333  0.25000000  0.08333333       0.009
   0.25000000  0.25000000  0.08333333       0.009
   0.41666667  0.25000000  0.08333333       0.009
  -0.41666667  0.25000000  0.08333333       0.009
  -0.25000000  0.25000000  0.08333333       0.009
  -0.08333333  0.25000000  0.08333333       0.009
   0.08333333  0.41666667  0.08333333       0.009
   0.25000000  0.41666667  0.08333333       0.009
   0.41666667  0.41666667  0.08333333       0.009
  -0.41666667  0.41666667  0.08333333       0.009
  -0.25000000  0.41666667  0.08333333       0.009
  -0.08333333  0.41666667  0.08333333       0.009
   0.08333333 -0.41666667  0.08333333       0.009
   0.25000000 -0.41666667  0.08333333       0.009
   0.41666667 -0.41666667  0.08333333       0.009
  -0.41666667 -0.41666667  0.08333333       0.009
  -0.25000000 -0.41666667  0.08333333       0.009
  -0.08333333 -0.41666667  0.08333333       0.009
   0.08333333 -0.25000000  0.08333333       0.009
   0.25000000 -0.25000000  0.08333333       0.009
   0.41666667 -0.25000000  0.08333333       0.009
  -0.41666667 -0.25000000  0.08333333       0.009
  -0.25000000 -0.25000000  0.08333333       0.009
  -0.08333333 -0.25000000  0.08333333       0.009
   0.08333333 -0.08333333  0.08333333       0.009
   0.25000000 -0.08333333  0.08333333       0.009
   0.41666667 -0.08333333  0.08333333       0.009
  -0.41666667 -0.08333333  0.08333333       0.009
  -0.25000000 -0.08333333  0.08333333       0.009
  -0.08333333 -0.08333333  0.08333333       0.009
   0.08333333  0.08333333  0.25000000       0.009
   0.25000000  0.08333333  0.25000000       0.009
   0.41666667  0.08333333  0.25000000       0.009
  -0.41666667  0.08333333  0.25000000       0.009
  -0.25000000  0.08333333  0.25000000       0.009
  -0.08333333  0.08333333  0.25000000       0.009
   0.08333333  0.25000000  0.25000000       0.009
   0.25000000  0.25000000  0.25000000       0.009
   0.41666667  0.25000000  0.25000000       0.009
  -0.41666667  0.25000000  0.25000000       0.009
  -0.25000000  0.25000000  0.25000000       0.009
  -0.08333333  0.25000000  0.25000000       0.009
   0.08333333  0.41666667  0.25000000       0.009
   0.25000000  0.41666667  0.25000000       0.009
   0.41666667  0.41666667  0.25000000       0.009
  -0.41666667  0.41666667  0.25000000       0.009
  -0.25000000  0.41666667  0.25000000       0.009
  -0.08333333  0.41666667  0.25000000       0.009
   0.08333333 -0.41666667  0.25000000       0.009
   0.25000000 -0.41666667  0.25000000       0.009
   0.41666667 -0.41666667  0.25000000       0.009
  -0.41666667 -0.41666667  0.25000000       0.009
  -0.25000000 -0.41666667  0.25000000       0.009
  -0.08333333 -0.41666667  0.25000000       0.009
   0.08333333 -0.25000000  0.25000000       0.009
   0.25000000 -0.25000000  0.25000000       0.009
   0.41666667 -0.25000000  0.25000000       0.009
  -0.41666667 -0.25000000  0.25000000       0.009
  -0.25000000 -0.25000000  0.25000000       0.009
  -0.08333333 -0.25000000  0.25000000       0.009
   0.08333333 -0.08333333  0.25000000       0.009
   0.25000000 -0.08333333  0.25000000       0.009
   0.41666667 -0.08333333  0.25000000       0.009
  -0.41666667 -0.08333333  0.25000000       0.009
  -0.25000000 -0.08333333  0.25000000       0.009
  -0.08333333 -0.08333333  0.25000000       0.009
   0.08333333  0.08333333  0.41666667       0.009
   0.25000000  0.08333333  0.41666667       0.009
   0.41666667  0.08333333  0.41666667       0.009
  -0.41666667  0.08333333  0.41666667       0.009
  -0.25000000  0.08333333  0.41666667       0.009
  -0.08333333  0.08333333  0.41666667       0.009
   0.08333333  0.25000000  0.41666667       0.009
   0.25000000  0.25000000  0.41666667       0.009
   0.41666667  0.25000000  0.41666667       0.009
  -0.41666667  0.25000000  0.41666667       0.009
  -0.25000000  0.25000000  0.41666667       0.009
  -0.08333333  0.25000000  0.41666667       0.009
   0.08333333  0.41666667  0.41666667       0.009
   0.25000000  0.41666667  0.41666667       0.009
   0.41666667  0.41666667  0.41666667       0.009
  -0.41666667  0.41666667  0.41666667       0.009
  -0.25000000  0.41666667  0.41666667       0.009
  -0.08333333  0.41666667  0.41666667       0.009
   0.08333333 -0.41666667  0.41666667       0.009
   0.25000000 -0.41666667  0.41666667       0.009
   0.41666667 -0.41666667  0.41666667       0.009
  -0.41666667 -0.41666667  0.41666667       0.009
  -0.25000000 -0.41666667  0.41666667       0.009
  -0.08333333 -0.41666667  0.41666667       0.009
   0.08333333 -0.25000000  0.41666667       0.009
   0.25000000 -0.25000000  0.41666667       0.009
   0.41666667 -0.25000000  0.41666667       0.009
  -0.41666667 -0.25000000  0.41666667       0.009
  -0.25000000 -0.25000000  0.41666667       0.009
  -0.08333333 -0.25000000  0.41666667       0.009
   0.08333333 -0.08333333  0.41666667       0.009
   0.25000000 -0.08333333  0.41666667       0.009
   0.41666667 -0.08333333  0.41666667       0.009
  -0.41666667 -0.08333333  0.41666667       0.009
  -0.25000000 -0.08333333  0.41666667       0.009
  -0.08333333 -0.08333333  0.41666667       0.009
 
 k-points in reciprocal lattice and weights: Automatic mesh                          
   0.08333333  0.08333333  0.08333333       0.009
   0.25000000  0.08333333  0.08333333       0.009
   0.41666667  0.08333333  0.08333333       0.009
  -0.41666667  0.08333333  0.08333333       0.009
  -0.25000000  0.08333333  0.08333333       0.009
  -0.08333333  0.08333333  0.08333333       0.009
   0.08333333  0.25000000  0.08333333       0.009
   0.25000000  0.25000000  0.08333333       0.009
   0.41666667  0.25000000  0.08333333       0.009
  -0.41666667  0.25000000  0.08333333       0.009
  -0.25000000  0.25000000  0.08333333       0.009
  -0.08333333  0.25000000  0.08333333       0.009
   0.08333333  0.41666667  0.08333333       0.009
   0.25000000  0.41666667  0.08333333       0.009
   0.41666667  0.41666667  0.08333333       0.009
  -0.41666667  0.41666667  0.08333333       0.009
  -0.25000000  0.41666667  0.08333333       0.009
  -0.08333333  0.41666667  0.08333333       0.009
   0.08333333 -0.41666667  0.08333333       0.009
   0.25000000 -0.41666667  0.08333333       0.009
   0.41666667 -0.41666667  0.08333333       0.009
  -0.41666667 -0.41666667  0.08333333       0.009
  -0.25000000 -0.41666667  0.08333333       0.009
  -0.08333333 -0.41666667  0.08333333       0.009
   0.08333333 -0.25000000  0.08333333       0.009
   0.25000000 -0.25000000  0.08333333       0.009
   0.41666667 -0.25000000  0.08333333       0.009
  -0.41666667 -0.25000000  0.08333333       0.009
  -0.25000000 -0.25000000  0.08333333       0.009
  -0.08333333 -0.25000000  0.08333333       0.009
   0.08333333 -0.08333333  0.08333333       0.009
   0.25000000 -0.08333333  0.08333333       0.009
   0.41666667 -0.08333333  0.08333333       0.009
  -0.41666667 -0.08333333  0.08333333       0.009
  -0.25000000 -0.08333333  0.08333333       0.009
  -0.08333333 -0.08333333  0.08333333       0.009
   0.08333333  0.08333333  0.25000000       0.009
   0.25000000  0.08333333  0.25000000       0.009
   0.41666667  0.08333333  0.25000000       0.009
  -0.41666667  0.08333333  0.25000000       0.009
  -0.25000000  0.08333333  0.25000000       0.009
  -0.08333333  0.08333333  0.25000000       0.009
   0.08333333  0.25000000  0.25000000       0.009
   0.25000000  0.25000000  0.25000000       0.009
   0.41666667  0.25000000  0.25000000       0.009
  -0.41666667  0.25000000  0.25000000       0.009
  -0.25000000  0.25000000  0.25000000       0.009
  -0.08333333  0.25000000  0.25000000       0.009
   0.08333333  0.41666667  0.25000000       0.009
   0.25000000  0.41666667  0.25000000       0.009
   0.41666667  0.41666667  0.25000000       0.009
  -0.41666667  0.41666667  0.25000000       0.009
  -0.25000000  0.41666667  0.25000000       0.009
  -0.08333333  0.41666667  0.25000000       0.009
   0.08333333 -0.41666667  0.25000000       0.009
   0.25000000 -0.41666667  0.25000000       0.009
   0.41666667 -0.41666667  0.25000000       0.009
  -0.41666667 -0.41666667  0.25000000       0.009
  -0.25000000 -0.41666667  0.25000000       0.009
  -0.08333333 -0.41666667  0.25000000       0.009
   0.08333333 -0.25000000  0.25000000       0.009
   0.25000000 -0.25000000  0.25000000       0.009
   0.41666667 -0.25000000  0.25000000       0.009
  -0.41666667 -0.25000000  0.25000000       0.009
  -0.25000000 -0.25000000  0.25000000       0.009
  -0.08333333 -0.25000000  0.25000000       0.009
   0.08333333 -0.08333333  0.25000000       0.009
   0.25000000 -0.08333333  0.25000000       0.009
   0.41666667 -0.08333333  0.25000000       0.009
  -0.41666667 -0.08333333  0.25000000       0.009
  -0.25000000 -0.08333333  0.25000000       0.009
  -0.08333333 -0.08333333  0.25000000       0.009
   0.08333333  0.08333333  0.41666667       0.009
   0.25000000  0.08333333  0.41666667       0.009
   0.41666667  0.08333333  0.41666667       0.009
  -0.41666667  0.08333333  0.41666667       0.009
  -0.25000000  0.08333333  0.41666667       0.009
  -0.08333333  0.08333333  0.41666667       0.009
   0.08333333  0.25000000  0.41666667       0.009
   0.25000000  0.25000000  0.41666667       0.009
   0.41666667  0.25000000  0.41666667       0.009
  -0.41666667  0.25000000  0.41666667       0.009
  -0.25000000  0.25000000  0.41666667       0.009
  -0.08333333  0.25000000  0.41666667       0.009
   0.08333333  0.41666667  0.41666667       0.009
   0.25000000  0.41666667  0.41666667       0.009
   0.41666667  0.41666667  0.41666667       0.009
  -0.41666667  0.41666667  0.41666667       0.009
  -0.25000000  0.41666667  0.41666667       0.009
  -0.08333333  0.41666667  0.41666667       0.009
   0.08333333 -0.41666667  0.41666667       0.009
   0.25000000 -0.41666667  0.41666667       0.009
   0.41666667 -0.41666667  0.41666667       0.009
  -0.41666667 -0.41666667  0.41666667       0.009
  -0.25000000 -0.41666667  0.41666667       0.009
  -0.08333333 -0.41666667  0.41666667       0.009
   0.08333333 -0.25000000  0.41666667       0.009
   0.25000000 -0.25000000  0.41666667       0.009
   0.41666667 -0.25000000  0.41666667       0.009
  -0.41666667 -0.25000000  0.41666667       0.009
  -0.25000000 -0.25000000  0.41666667       0.009
  -0.08333333 -0.25000000  0.41666667       0.009
   0.08333333 -0.08333333  0.41666667       0.009
   0.25000000 -0.08333333  0.41666667       0.009
   0.41666667 -0.08333333  0.41666667       0.009
  -0.41666667 -0.08333333  0.41666667       0.009
  -0.25000000 -0.08333333  0.41666667       0.009
  -0.08333333 -0.08333333  0.41666667       0.009
 
 position of ions in fractional coordinates (direct lattice) 
   0.00000000  0.00000000  0.00000000
   0.50000000  0.50000000  0.50000000
 
 position of ions in cartesian coordinates  (Angst):
   0.00000000  0.00000000  0.00000000
   1.43000000  1.43000000  1.43000000
 


--------------------------------------------------------------------------------------------------------


 k-point  1 :   0.0833 0.0833 0.0833  plane waves:     766
 k-point  2 :   0.2500 0.0833 0.0833  plane waves:     783
 k-point  3 :   0.4167 0.0833 0.0833  plane waves:     786
 k-point  4 :  -0.4167 0.0833 0.0833  plane waves:     786
 k-point  5 :  -0.2500 0.0833 0.0833  plane waves:     783
 k-point  6 :  -0.0833 0.0833 0.0833  plane waves:     766
 k-point  7 :   0.0833 0.2500 0.0833  plane waves:     783
 k-point  8 :   0.2500 0.2500 0.0833  plane waves:     780
 k-point  9 :   0.4167 0.2500 0.0833  plane waves:     783
 k-point 10 :  -0.4167 0.2500 0.0833  plane waves:     783
 k-point 11 :  -0.2500 0.2500 0.0833  plane waves:     780
 k-point 12 :  -0.0833 0.2500 0.0833  plane waves:     783
 k-point 13 :   0.0833 0.4167 0.0833  plane waves:     786
 k-point 14 :   0.2500 0.4167 0.0833  plane waves:     783
 k-point 15 :   0.4167 0.4167 0.0833  plane waves:     781
 k-point 16 :  -0.4167 0.4167 0.0833  plane waves:     781
 k-point 17 :  -0.2500 0.4167 0.0833  plane waves:     783
 k-point 18 :  -0.0833 0.4167 0.0833  plane waves:     786
 k-point 19 :   0.0833-0.4167 0.0833  plane waves:     786
 k-point 20 :   0.2500-0.4167 0.0833  plane waves:     783
 k-point 21 :   0.4167-0.4167 0.0833  plane waves:     781
 k-point 22 :  -0.4167-0.4167 0.0833  plane waves:     781
 k-point 23 :  -0.2500-0.4167 0.0833  plane waves:     783
 k-point 24 :  -0.0833-0.4167 0.0833  plane waves:     786
 k-point 25 :   0.0833-0.2500 0.0833  plane waves:     783
 k-point 26 :   0.2500-0.2500 0.0833  plane waves:     780
 k-point 27 :   0.4167-0.2500 0.0833  plane waves:     783
 k-point 28 :  -0.4167-0.2500 0.0833  plane waves:     783
 k-point 29 :  -0.2500-0.2500 0.0833  plane waves:     780
 k-point 30 :  -0.0833-0.2500 0.0833  plane waves:     783
 k-point 31 :   0.0833-0.0833 0.0833  plane waves:     766
 k-point 32 :   0.2500-0.0833 0.0833  plane waves:     783
 k-point 33 :   0.4167-0.0833 0.0833  plane waves:     786
 k-point 34 :  -0.4167-0.0833 0.0833  plane waves:     786
 k-point 35 :  -0.2500-0.0833 0.0833  plane waves:     783
 k-point 36 :  -0.0833-0.0833 0.0833  plane waves:     766
 k-point 37 :   0.0833 0.0833 0.2500  plane waves:     783
 k-point 38 :   0.2500 0.0833 0.2500  plane waves:     780
 k-point 39 :   0.4167 0.0833 0.2500  plane waves:     783
 k-point 40 :  -0.4167 0.0833 0.2500  plane waves:     783
 k-point 41 :  -0.2500 0.0833 0.2500  plane waves:     780
 k-point 42 :  -0.0833 0.0833 0.2500  plane waves:     783
 k-point 43 :   0.0833 0.2500 0.2500  plane waves:     780
 k-point 44 :   0.2500 0.2500 0.2500  plane waves:     769
 k-point 45 :   0.4167 0.2500 0.2500  plane waves:     777
 k-point 46 :  -0.4167 0.2500 0.2500  plane waves:     777
 k-point 47 :  -0.2500 0.2500 0.2500  plane waves:     769
 k-point 48 :  -0.0833 0.2500 0.2500  plane waves:     780
 k-point 49 :   0.0833 0.4167 0.2500  plane waves:     783
 k-point 50 :   0.2500 0.4167 0.2500  plane waves:     777
 k-point 51 :   0.4167 0.4167 0.2500  plane waves:     777
 k-point 52 :  -0.4167 0.4167 0.2500  plane waves:     777
 k-point 53 :  -0.2500 0.4167 0.2500  plane waves:     777
 k-point 54 :  -0.0833 0.4167 0.2500  plane waves:     783
 k-point 55 :   0.0833-0.4167 0.2500  plane waves:     783
 k-point 56 :   0.2500-0.4167 0.2500  plane waves:     777
 k-point 57 :   0.4167-0.4167 0.2500  plane waves:     777
 k-point 58 :  -0.4167-0.4167 0.2500  plane waves:     777
 k-point 59 :  -0.2500-0.4167 0.2500  plane waves:     777
 k-point 60 :  -0.0833-0.4167 0.2500  plane waves:     783
 k-point 61 :   0.0833-0.2500 0.2500  plane waves:     780
 k-point 62 :   0.2500-0.2500 0.2500  plane waves:     769
 k-point 63 :   0.4167-0.2500 0.2500  plane waves:     777
 k-point 64 :  -0.4167-0.2500 0.2500  plane waves:     777
 k-point 65 :  -0.2500-0.2500 0.2500  plane waves:     769
 k-point 66 :  -0.0833-0.2500 0.2500  plane waves:     780
 k-point 67 :   0.0833-0.0833 0.2500  plane waves:     783
 k-point 68 :   0.2500-0.0833 0.2500  plane waves:     780
 k-point 69 :   0.4167-0.0833 0.2500  plane waves:     783
 k-point 70 :  -0.4167-0.0833 0.2500  plane waves:     783
 k-point 71 :  -0.2500-0.0833 0.2500  plane waves:     780
 k-point 72 :  -0.0833-0.0833 0.2500  plane waves:     783
 k-point 73 :   0.0833 0.0833 0.4167  plane waves:     786
 k-point 74 :   0.2500 0.0833 0.4167  plane waves:     783
 k-point 75 :   0.4167 0.0833 0.4167  plane waves:     781
 k-point 76 :  -0.4167 0.0833 0.4167  plane waves:     781
 k-point 77 :  -0.2500 0.0833 0.4167  plane waves:     783
 k-point 78 :  -0.0833 0.0833 0.4167  plane waves:     786
 k-point 79 :   0.0833 0.2500 0.4167  plane waves:     783
 k-point 80 :   0.2500 0.2500 0.4167  plane waves:     777
 k-point 81 :   0.4167 0.2500 0.4167  plane waves:     777
 k-point 82 :  -0.4167 0.2500 0.4167  plane waves:     777
 k-point 83 :  -0.2500 0.2500 0.4167  plane waves:     777
 k-point 84 :  -0.0833 0.2500 0.4167  plane waves:     783
 k-point 85 :   0.0833 0.4167 0.4167  plane waves:     781
 k-point 86 :   0.2500 0.4167 0.4167  plane waves:     777
 k-point 87 :   0.4167 0.4167 0.4167  plane waves:     771
 k-point 88 :  -0.4167 0.4167 0.4167  plane waves:     771
 k-point 89 :  -0.2500 0.4167 0.4167  plane waves:     777
 k-point 90 :  -0.0833 0.4167 0.4167  plane waves:     781
 k-point 91 :   0.0833-0.4167 0.4167  plane waves:     781
 k-point 92 :   0.2500-0.4167 0.4167  plane waves:     777
 k-point 93 :   0.4167-0.4167 0.4167  plane waves:     771
 k-point 94 :  -0.4167-0.4167 0.4167  plane waves:     771
 k-point 95 :  -0.2500-0.4167 0.4167  plane waves:     777
 k-point 96 :  -0.0833-0.4167 0.4167  plane waves:     781
 k-point 97 :   0.0833-0.2500 0.4167  plane waves:     783
 k-point 98 :   0.2500-0.2500 0.4167  plane waves:     777
 k-point 99 :   0.4167-0.2500 0.4167  plane waves:     777
 k-point ** :  -0.4167-0.2500 0.4167  plane waves:     777
 k-point ** :  -0.2500-0.2500 0.4167  plane waves:     777
 k-point ** :  -0.0833-0.2500 0.4167  plane waves:     783
 k-point ** :   0.0833-0.0833 0.4167  plane waves:     786
 k-point ** :   0.2500-0.0833 0.4167  plane waves:     783
 k-point ** :   0.4167-0.0833 0.4167  plane waves:     781
 k-point ** :  -0.4167-0.0833 0.4167  plane waves:     781
 k-point ** :  -0.2500-0.0833 0.4167  plane waves:     783
 k-point ** :  -0.0833-0.0833 0.4167  plane waves:     786

 maximum and minimum number of plane-waves per node :       786      766

 maximum number of plane-waves:       786
 maximum index in each direction: 
   IXMAX=    6   IYMAX=    6   IZMAX=    5
   IXMIN=   -6   IYMIN=   -6   IZMIN=   -6

 WARNING: aliasing errors must be expected set NGX to  26 to avoid them
 WARNING: aliasing errors must be expected set NGY to  26 to avoid them
 WARNING: aliasing errors must be expected set NGZ to  24 to avoid them
 aliasing errors are usually negligible using standard VASP settings
 and one can safely disregard these warnings

 serial   3D FFT for wavefunctions
 parallel 3D FFT for charge:
    minimum data exchange during FFTs selected (reduces bandwidth)


 total amount of memory used by VASP on root node    46296. kBytes
========================================================================

   base      :      30000. kBytes
   nonl-proj :      12467. kBytes
   fftplans  :        111. kBytes
   grid      :        671. kBytes
   one-center:         62. kBytes
   wavefun   :       2985. kBytes
 
     INWAV:  cpu time    0.0000: real time    0.0000
 Broyden mixing: mesh for mixing (old mesh)
   NGX = 11   NGY = 11   NGZ = 11
  (NGX  = 36   NGY  = 36   NGZ  = 36)
  gives a total of   1331 points

 initial charge density was supplied:
 charge density of overlapping atoms calculated
 number of electron      16.0000000 magnetization       2.0000000
 keeping initial charge density in first step


--------------------------------------------------------------------------------------------------------


 Maximum index for augmentation-charges          962 (set IRDMAX)


--------------------------------------------------------------------------------------------------------


 First call to EWALD:  gamma=   0.620
 Maximum number of real-space cells 3x 3x 3
 Maximum number of reciprocal cells 3x 3x 3

 FEWALD executed in parallel
    FEWALD:  cpu time    0.0020: real time    0.0019


----------------------------------------- Iteration    1(   1)  ---------------------------------------


    POTLOK:  cpu time    0.0180: real time    0.0182
    SETDIJ:  cpu time    0.0070: real time    0.0073
     EDDAV:  cpu time    2.6426: real time    2.6440
       DOS:  cpu time    0.0020: real time    0.0021
    --------------------------------------------
      LOOP:  cpu time    2.6736: real time    2.6880

 eigenvalue-minimisations  : 13824
 total energy-change (2. order) : 0.1343688E+01  (-0.9477833E+03)
 number of electron      16.0000000 magnetization       2.0000000
 augmentation part       16.0000000 magnetization       2.0000000

 Free energy of the ion-electron system (eV)
  ---------------------------------------------------
  alpha Z        PSCENC =       118.17524546
  Ewald energy   TEWEN  =     -1172.68111701
  -Hartree energ DENC   =      -227.55063011
  -exchange      EXHF   =         0.00000000
  -V(xc)+E(xc)   XCENC  =         7.90836475
  PAW double counting   =      1109.45345578    -1124.86183816
  entropy T*S    EENTRO =        -0.00089586
  eigenvalues    EBANDS =       102.27384706
  atomic energy  EATOM  =      1188.62725594
  Solvation  Ediel_sol  =         0.00000000
  ---------------------------------------------------
  free energy    TOTEN  =         1.34368784 eV

  energy without entropy =        1.34458370  energy(sigma->0) =        1.34398646


--------------------------------------------------------------------------------------------------------




----------------------------------------- Iteration    1(   2)  ---------------------------------------


     EDDAV:  cpu time    4.5023: real time    4.5040
       DOS:  cpu time    0.0020: real time    0.0021
    --------------------------------------------
      LOOP:  cpu time    4.5063: real time    4.5196

 eigenvalue-minimisations  : 19296
 total energy-change (2. order) :-0.1981420E+02  (-0.1953731E+02)
 number of electron      16.0000000 magnetization       2.0000000
 augmentation part       16.0000000 magnetization       2.0000000

 Free energy of the ion-electron system (eV)
  ---------------------------------------------------
  alpha Z        PSCENC =       118.17524546
  Ewald energy   TEWEN  =     -1172.68111701
  -Hartree energ DENC   =      -227.55063011
  -exchange      EXHF   =         0.00000000
  -V(xc)+E(xc)   XCENC  =         7.90836475
  PAW double counting   =      1109.45345578    -1124.86183816
  entropy T*S    EENTRO =        -0.01453997
  eigenvalues    EBANDS =        82.47328934
  atomic energy  EATOM  =      1188.62725594
  Solvation  Ediel_sol  =         0.00000000
  ---------------------------------------------------
  free energy    TOTEN  =       -18.47051399 eV

  energy without entropy =      -18.45597402  energy(sigma->0) =      -18.46566734


--------------------------------------------------------------------------------------------------------




----------------------------------------- Iteration    1(   3)  ---------------------------------------


     EDDAV:  cpu time    3.0655: real time    3.0682
       DOS:  cpu time    0.0020: real time    0.0021
    --------------------------------------------
      LOOP:  cpu time    3.0675: real time    3.0830

 eigenvalue-minimisations  : 14976
 total energy-change (2. order) :-0.2271025E-01  (-0.2268580E-01)
 number of electron      16.0000000 magnetization       2.0000000
 augmentation part       16.0000000 magnetization       2.0000000

 Free energy of the ion-electron system (eV)
  ---------------------------------------------------
  alpha Z        PSCENC =       118.17524546
  Ewald energy   TEWEN  =     -1172.68111701
  -Hartree energ DENC   =      -227.55063011
  -exchange      EXHF   =         0.00000000
  -V(xc)+E(xc)   XCENC  =         7.90836475
  PAW double counting   =      1109.45345578    -1124.86183816
  entropy T*S    EENTRO =        -0.01456044
  eigenvalues    EBANDS =        82.45059956
  atomic energy  EATOM  =      1188.62725594
  Solvation  Ediel_sol  =         0.00000000
  ---------------------------------------------------
  free energy    TOTEN  =       -18.49322424 eV

  energy without entropy =      -18.47866380  energy(sigma->0) =      -18.48837076


--------------------------------------------------------------------------------------------------------




----------------------------------------- Iteration    1(   4)  ---------------------------------------


     EDDAV:  cpu time    6.6170: real time    6.6198
       DOS:  cpu time    0.0020: real time    0.0021
    --------------------------------------------
      LOOP:  cpu time    6.6200: real time    6.6347

 eigenvalue-minimisations  : 23808
 total energy-change (2. order) :-0.1581322E-04  (-0.1581387E-04)
 number of electron      16.0000000 magnetization       2.0000000
 augmentation part       16.0000000 magnetization       2.0000000

 Free energy of the ion-electron system (eV)
  ---------------------------------------------------
  alpha Z        PSCENC =       118.17524546
  Ewald energy   TEWEN  =     -1172.68111701
  -Hartree energ DENC   =      -227.55063011
  -exchange      EXHF   =         0.00000000
  -V(xc)+E(xc)   XCENC  =         7.90836475
  PAW double counting   =      1109.45345578    -1124.86183816
  entropy T*S    EENTRO =        -0.01456035
  eigenvalues    EBANDS =        82.45058366
  atomic energy  EATOM  =      1188.62725594
  Solvation  Ediel_sol  =         0.00000000
  ---------------------------------------------------
  free energy    TOTEN  =       -18.49324005 eV

  energy without entropy =      -18.47867970  energy(sigma->0) =      -18.48838660


--------------------------------------------------------------------------------------------------------




----------------------------------------- Iteration    1(   5)  ---------------------------------------


     EDDAV:  cpu time    3.2935: real time    3.2946
       DOS:  cpu time    0.0020: real time    0.0023
    CHARGE:  cpu time    0.0220: real time    0.0219
    MIXING:  cpu time    0.0010: real time    0.0004
    --------------------------------------------
      LOOP:  cpu time    3.3195: real time    3.3318

 eigenvalue-minimisations  : 15424
 total energy-change (2. order) :-0.3828973E-09  (-0.1830174E-09)
 number of electron      15.9999961 magnetization       2.4731462
 augmentation part        7.1371933 magnetization       1.8108225

 Broyden mixing:
  rms(total) = 0.15797E+01    rms(broyden)= 0.15796E+01
  rms(prec ) = 0.37560E+01
  weight for this iteration     100.00

 Free energy of the ion-electron system (eV)
  ---------------------------------------------------
  alpha Z        PSCENC =       118.17524546
  Ewald energy   TEWEN  =     -1172.68111701
  -Hartree energ DENC   =      -227.55063011
  -exchange      EXHF   =         0.00000000
  -V(xc)+E(xc)   XCENC  =         7.90836475
  PAW double counting   =      1109.45345578    -1124.86183816
  entropy T*S    EENTRO =        -0.01456035
  eigenvalues    EBANDS =        82.45058366
  atomic energy  EATOM  =      1188.62725594
  Solvation  Ediel_sol  =         0.00000000
  ---------------------------------------------------
  free energy    TOTEN  =       -18.49324005 eV

  energy without entropy =      -18.47867970  energy(sigma->0) =      -18.48838660


--------------------------------------------------------------------------------------------------------




----------------------------------------- Iteration    1(   6)  ---------------------------------------


    POTLOK:  cpu time    0.0060: real time    0.0058
    SETDIJ:  cpu time    0.0070: real time    0.0072
     EDDAV:  cpu time    4.6023: real time    4.6050
       DOS:  cpu time    0.0020: real time    0.0021
    CHARGE:  cpu time    0.0220: real time    0.0226
    MIXING:  cpu time    0.0010: real time    0.0003
    --------------------------------------------
      LOOP:  cpu time    4.6403: real time    4.6555

 eigenvalue-minimisations  : 18944
 total energy-change (2. order) : 0.2062569E+01  (-0.3342057E+01)
 number of electron      15.9999950 magnetization       3.5312580
 augmentation part        8.6522827 magnetization       2.8644175

 Broyden mixing:
  rms(total) = 0.90351E+00    rms(broyden)= 0.90345E+00
  rms(prec ) = 0.11974E+01
  weight for this iteration     100.00

 eigenvalues of (default mixing * dielectric matrix)
  average eigenvalue GAMMA=   0.5721
  0.5721

 Free energy of the ion-electron system (eV)
  ---------------------------------------------------
  alpha Z        PSCENC =       118.17524546
  Ewald energy   TEWEN  =     -1172.68111701
  -Hartree energ DENC   =      -191.84562397
  -exchange      EXHF   =         0.00000000
  -V(xc)+E(xc)   XCENC  =         6.62531176
  PAW double counting   =      1194.27047597    -1204.67460859
  entropy T*S    EENTRO =         0.01797888
  eigenvalues    EBANDS =        45.05441085
  atomic energy  EATOM  =      1188.62725594
  Solvation  Ediel_sol  =         0.00000000
  ---------------------------------------------------
  free energy    TOTEN  =       -16.43067072 eV

  energy without entropy =      -16.44864960  energy(sigma->0) =      -16.43666368


--------------------------------------------------------------------------------------------------------




----------------------------------------- Iteration    1(   7)  ---------------------------------------


    POTLOK:  cpu time    0.0060: real time    0.0058
    SETDIJ:  cpu time    0.0070: real time    0.0072
     EDDAV:  cpu time    3.2715: real time    3.2726
       DOS:  cpu time    0.0010: real time    0.0019
    CHARGE:  cpu time    0.0220: real time    0.0218
    MIXING:  cpu time    0.0010: real time    0.0003
    --------------------------------------------
      LOOP:  cpu time    3.3095: real time    3.3218

 eigenvalue-minimisations  : 15488
 total energy-change (2. order) : 0.5141712E-01  (-0.2654153E+00)
 number of electron      15.9999953 magnetization       4.3222493
 augmentation part        8.2679719 magnetization       3.5648945

 Broyden mixing:
  rms(total) = 0.45969E+00    rms(broyden)= 0.45968E+00
  rms(prec ) = 0.51166E+00
  weight for this iteration     100.00

 eigenvalues of (default mixing * dielectric matrix)
  average eigenvalue GAMMA=   0.8899
  1.1502  0.6296

 Free energy of the ion-electron system (eV)
  ---------------------------------------------------
  alpha Z        PSCENC =       118.17524546
  Ewald energy   TEWEN  =     -1172.68111701
  -Hartree energ DENC   =      -198.21304581
  -exchange      EXHF   =         0.00000000
  -V(xc)+E(xc)   XCENC  =         7.76951710
  PAW double counting   =      1260.60748177    -1274.78150140
  entropy T*S    EENTRO =        -0.01969813
  eigenvalues    EBANDS =        54.13660848
  atomic energy  EATOM  =      1188.62725594
  Solvation  Ediel_sol  =         0.00000000
  ---------------------------------------------------
  free energy    TOTEN  =       -16.37925360 eV

  energy without entropy =      -16.35955546  energy(sigma->0) =      -16.37268755


--------------------------------------------------------------------------------------------------------




----------------------------------------- Iteration    1(   8)  ---------------------------------------


    POTLOK:  cpu time    0.0050: real time    0.0058
    SETDIJ:  cpu time    0.0070: real time    0.0072
     EDDAV:  cpu time    5.3572: real time    5.3994
       DOS:  cpu time    0.0020: real time    0.0018
    CHARGE:  cpu time    0.0230: real time    0.0227
    MIXING:  cpu time    0.0000: real time    0.0003
    --------------------------------------------
      LOOP:  cpu time    5.3952: real time    5.4505

 eigenvalue-minimisations  : 21248
 total energy-change (2. order) :-0.6688684E-01  (-0.1463638E-01)
 number of electron      15.9999953 magnetization       4.4924538
 augmentation part        8.2752662 magnetization       3.7677299

 Broyden mixing:
  rms(total) = 0.24199E+00    rms(broyden)= 0.24199E+00
  rms(prec ) = 0.28455E+00
  weight for this iteration     100.00

 eigenvalues of (default mixing * dielectric matrix)
  average eigenvalue GAMMA=   1.0026
  1.6936  0.6571  0.6571

 Free energy of the ion-electron system (eV)
  ---------------------------------------------------
  alpha Z        PSCENC =       118.17524546
  Ewald energy   TEWEN  =     -1172.68111701
  -Hartree energ DENC   =      -196.62579494
  -exchange      EXHF   =         0.00000000
  -V(xc)+E(xc)   XCENC  =         8.43427730
  PAW double counting   =      1317.03097564    -1332.85869498
  entropy T*S    EENTRO =        -0.01638207
  eigenvalues    EBANDS =        53.46809423
  atomic energy  EATOM  =      1188.62725594
  Solvation  Ediel_sol  =         0.00000000
  ---------------------------------------------------
  free energy    TOTEN  =       -16.44614044 eV

  energy without entropy =      -16.42975837  energy(sigma->0) =      -16.44067975


--------------------------------------------------------------------------------------------------------




----------------------------------------- Iteration    1(   9)  ---------------------------------------


    POTLOK:  cpu time    0.0060: real time    0.0058
    SETDIJ:  cpu time    0.0070: real time    0.0072
     EDDAV:  cpu time    4.8753: real time    4.8785
       DOS:  cpu time    0.0020: real time    0.0019
    CHARGE:  cpu time    0.0290: real time    0.0283
    MIXING:  cpu time    0.0000: real time    0.0003
    --------------------------------------------
      LOOP:  cpu time    4.9203: real time    4.9348

 eigenvalue-minimisations  : 19840
 total energy-change (2. order) : 0.1166061E-01  (-0.2862381E-02)
 number of electron      15.9999953 magnetization       4.3733591
 augmentation part        8.2965986 magnetization       3.6329411

 Broyden mixing:
  rms(total) = 0.12928E+00    rms(broyden)= 0.12927E+00
  rms(prec ) = 0.13889E+00
  weight for this iteration     100.00

 eigenvalues of (default mixing * dielectric matrix)
  average eigenvalue GAMMA=   1.4239
  2.9155  1.3766  0.7777  0.6260

 Free energy of the ion-electron system (eV)
  ---------------------------------------------------
  alpha Z        PSCENC =       118.17524546
  Ewald energy   TEWEN  =     -1172.68111701
  -Hartree energ DENC   =      -195.12342542
  -exchange      EXHF   =         0.00000000
  -V(xc)+E(xc)   XCENC  =         8.62018547
  PAW double counting   =      1369.90482674    -1387.09165358
  entropy T*S    EENTRO =        -0.01704708
  eigenvalues    EBANDS =        53.15124966
  atomic energy  EATOM  =      1188.62725594
  Solvation  Ediel_sol  =         0.00000000
  ---------------------------------------------------
  free energy    TOTEN  =       -16.43447983 eV

  energy without entropy =      -16.41743275  energy(sigma->0) =      -16.42879747


--------------------------------------------------------------------------------------------------------




----------------------------------------- Iteration    1(  10)  ---------------------------------------


    POTLOK:  cpu time    0.0050: real time    0.0058
    SETDIJ:  cpu time    0.0080: real time    0.0072
     EDDAV:  cpu time    5.1612: real time    5.1634
       DOS:  cpu time    0.0020: real time    0.0019
    CHARGE:  cpu time    0.0280: real time    0.0283
    MIXING:  cpu time    0.0010: real time    0.0003
    --------------------------------------------
      LOOP:  cpu time    5.2062: real time    5.2199

 eigenvalue-minimisations  : 20480
 total energy-change (2. order) :-0.1045546E-02  (-0.1868785E-02)
 number of electron      15.9999953 magnetization       4.3239859
 augmentation part        8.2792776 magnetization       3.5879664

 Broyden mixing:
  rms(total) = 0.78906E-01    rms(broyden)= 0.78906E-01
  rms(prec ) = 0.86534E-01
  weight for this iteration     100.00

 eigenvalues of (default mixing * dielectric matrix)
  average eigenvalue GAMMA=   1.2223
  2.2942  1.5746  0.9464  0.6480  0.6480

 Free energy of the ion-electron system (eV)
  ---------------------------------------------------
  alpha Z        PSCENC =       118.17524546
  Ewald energy   TEWEN  =     -1172.68111701
  -Hartree energ DENC   =      -194.00243364
  -exchange      EXHF   =         0.00000000
  -V(xc)+E(xc)   XCENC  =         8.45139751
  PAW double counting   =      1431.90787935    -1450.42961301
  entropy T*S    EENTRO =        -0.01736766
  eigenvalues    EBANDS =        53.53322769
  atomic energy  EATOM  =      1188.62725594
  Solvation  Ediel_sol  =         0.00000000
  ---------------------------------------------------
  free energy    TOTEN  =       -16.43552537 eV

  energy without entropy =      -16.41815771  energy(sigma->0) =      -16.42973615


--------------------------------------------------------------------------------------------------------




----------------------------------------- Iteration    1(  11)  ---------------------------------------


    POTLOK:  cpu time    0.0050: real time    0.0059
    SETDIJ:  cpu time    0.0070: real time    0.0073
     EDDAV:  cpu time    4.6663: real time    4.6677
       DOS:  cpu time    0.0020: real time    0.0019
    CHARGE:  cpu time    0.0280: real time    0.0284
    MIXING:  cpu time    0.0000: real time    0.0003
    --------------------------------------------
      LOOP:  cpu time    4.7093: real time    4.7246

 eigenvalue-minimisations  : 19072
 total energy-change (2. order) : 0.6411605E-03  (-0.5933830E-03)
 number of electron      15.9999953 magnetization       4.3407835
 augmentation part        8.2935887 magnetization       3.6107353

 Broyden mixing:
  rms(total) = 0.14064E-01    rms(broyden)= 0.14062E-01
  rms(prec ) = 0.18288E-01
  weight for this iteration     100.00

 eigenvalues of (default mixing * dielectric matrix)
  average eigenvalue GAMMA=   1.1293
  2.2581  1.2641  1.2641  0.6346  0.6775  0.6775

 Free energy of the ion-electron system (eV)
  ---------------------------------------------------
  alpha Z        PSCENC =       118.17524546
  Ewald energy   TEWEN  =     -1172.68111701
  -Hartree energ DENC   =      -194.15784578
  -exchange      EXHF   =         0.00000000
  -V(xc)+E(xc)   XCENC  =         8.40054690
  PAW double counting   =      1410.49001705    -1428.43462305
  entropy T*S    EENTRO =        -0.01765175
  eigenvalues    EBANDS =        53.16328802
  atomic energy  EATOM  =      1188.62725594
  Solvation  Ediel_sol  =         0.00000000
  ---------------------------------------------------
  free energy    TOTEN  =       -16.43488421 eV

  energy without entropy =      -16.41723247  energy(sigma->0) =      -16.42900030


--------------------------------------------------------------------------------------------------------




----------------------------------------- Iteration    1(  12)  ---------------------------------------


    POTLOK:  cpu time    0.0050: real time    0.0059
    SETDIJ:  cpu time    0.0080: real time    0.0073
     EDDAV:  cpu time    4.3173: real time    4.3219
       DOS:  cpu time    0.0010: real time    0.0019
    CHARGE:  cpu time    0.0290: real time    0.0284
    MIXING:  cpu time    0.0000: real time    0.0003
    --------------------------------------------
      LOOP:  cpu time    4.3613: real time    4.3790

 eigenvalue-minimisations  : 18336
 total energy-change (2. order) : 0.4222547E-04  (-0.2232264E-04)
 number of electron      15.9999953 magnetization       4.3364925
 augmentation part        8.2971771 magnetization       3.6066291

 Broyden mixing:
  rms(total) = 0.49210E-02    rms(broyden)= 0.49210E-02
  rms(prec ) = 0.63142E-02
  weight for this iteration     100.00

 eigenvalues of (default mixing * dielectric matrix)
  average eigenvalue GAMMA=   1.0997
  2.2682  1.4706  0.9787  0.9787  0.6901  0.6901  0.6213

 Free energy of the ion-electron system (eV)
  ---------------------------------------------------
  alpha Z        PSCENC =       118.17524546
  Ewald energy   TEWEN  =     -1172.68111701
  -Hartree energ DENC   =      -194.11031227
  -exchange      EXHF   =         0.00000000
  -V(xc)+E(xc)   XCENC  =         8.42568115
  PAW double counting   =      1410.44967243    -1428.39142517
  entropy T*S    EENTRO =        -0.01775913
  eigenvalues    EBANDS =        53.08791662
  atomic energy  EATOM  =      1188.62725594
  Solvation  Ediel_sol  =         0.00000000
  ---------------------------------------------------
  free energy    TOTEN  =       -16.43484199 eV

  energy without entropy =      -16.41708286  energy(sigma->0) =      -16.42892228


--------------------------------------------------------------------------------------------------------




----------------------------------------- Iteration    1(  13)  ---------------------------------------


    POTLOK:  cpu time    0.0060: real time    0.0058
    SETDIJ:  cpu time    0.0070: real time    0.0073
     EDDAV:  cpu time    2.2677: real time    2.2690
       DOS:  cpu time    0.0020: real time    0.0019
    --------------------------------------------
      LOOP:  cpu time    2.2837: real time    2.2968

 eigenvalue-minimisations  : 11136
 total energy-change (2. order) :-0.1203677E-05  (-0.5908737E-05)
 number of electron      15.9999953 magnetization       4.3364925
 augmentation part        8.2971771 magnetization       3.6066291

 Free energy of the ion-electron system (eV)
  ---------------------------------------------------
  alpha Z        PSCENC =       118.17524546
  Ewald energy   TEWEN  =     -1172.68111701
  -Hartree energ DENC   =      -194.10245849
  -exchange      EXHF   =         0.00000000
  -V(xc)+E(xc)   XCENC  =         8.42091323
  PAW double counting   =      1410.84101815    -1428.78382095
  entropy T*S    EENTRO =        -0.01775108
  eigenvalues    EBANDS =        53.08587156
  atomic energy  EATOM  =      1188.62725594
  Solvation  Ediel_sol  =         0.00000000
  ---------------------------------------------------
  free energy    TOTEN  =       -16.43484319 eV

  energy without entropy =      -16.41709212  energy(sigma->0) =      -16.42892617


--------------------------------------------------------------------------------------------------------




 average (electrostatic) potential at core
  the test charge radii are     1.0103
  (the norm of the test charge is              1.0000)
       1 -43.6400       2 -43.6364
 
 
 
 E-fermi :   5.4396     XC(G=0): -12.9575     alpha+bet :-13.2519


 spin component 1

 k-point     1 :       0.0833    0.0833    0.0833
  band No.  band energies     occupation 
      1      -2.2964      1.00000
      2       1.0246      1.00000
      3       1.0246      1.00000
      4       3.1604      1.00000
      5       3.1604      1.00000
      6       3.5006      1.00000
      7       4.3842      1.00000
      8       4.3842      1.00000
      9       4.9700      1.00222
     10       5.4490      0.46022
     11       5.4490      0.46022
     12      14.5621      0.00000
     13      14.5621      0.00000
     14      15.1634      0.00000
     15      22.1848      0.00000
     16      22.1848      0.00000
     17      26.9135      0.00000
     18      28.3421      0.00000
     19      28.3421      0.00000
     20      30.6732      0.00000
     21      32.7400      0.00000
     22      35.2981      0.00000
     23      35.2981      0.00000
     24      36.7751      0.00000
     25      36.7751      0.00000
     26      41.0795      0.00000
     27      41.4062      0.00000
     28      41.4062      0.00000
     29      42.7013      0.00000
     30      48.3397      0.00000
     31      50.3253      0.00000
     32      50.3253      0.00000

 k-point     2 :       0.2500    0.0833    0.0833
  band No.  band energies     occupation 
      1      -1.2555      1.00000
      2       1.4061      1.00000
      3       1.4378      1.00000
      4       3.0461      1.00000
      5       3.0987      1.00000
      6       3.9367      1.00000
      7       4.0431      1.00000
      8       4.1698      1.00000
      9       4.5824      1.00000
     10       4.7667      1.00001
     11       5.3882      0.70959
     12      10.5777     -0.00000
     13      16.2181      0.00000
     14      16.6181      0.00000
     15      22.7798      0.00000
     16      24.3616      0.00000
     17      24.7057      0.00000
     18      26.0495      0.00000
     19      29.5408      0.00000
     20      30.7566      0.00000
     21      30.8911      0.00000
     22      32.7292      0.00000
     23      35.2811      0.00000
     24      38.9393      0.00000
     25      39.5726      0.00000
     26      40.9619      0.00000
     27      43.7298      0.00000
     28      44.7039      0.00000
     29      45.4957      0.00000
     30      45.5425      0.00000
     31      46.9329      0.00000
     32      51.6403      0.00000

 k-point     3 :       0.4167    0.0833    0.0833
  band No.  band energies     occupation 
      1       0.3979      1.00000
      2       1.4949      1.00000
      3       2.1418      1.00000
      4       2.8421      1.00000
      5       3.2042      1.00000
      6       3.5448      1.00000
      7       3.7346      1.00000
      8       4.0479      1.00000
      9       4.4761      1.00000
     10       4.9753      1.00248
     11       5.1045      1.01962
     12       6.9974     -0.00000
     13      18.7325      0.00000
     14      19.1974      0.00000
     15      21.5503      0.00000
     16      22.4160      0.00000
     17      24.1754      0.00000
     18      25.7928      0.00000
     19      26.5834      0.00000
     20      28.1063      0.00000
     21      33.8125      0.00000
     22      35.9448      0.00000
     23      37.5174      0.00000
     24      37.9456      0.00000
     25      40.3800      0.00000
     26      41.1627      0.00000
     27      42.7123      0.00000
     28      44.6139      0.00000
     29      46.9302      0.00000
     30      47.9052      0.00000
     31      49.0542      0.00000
     32      51.2466      0.00000

 k-point     4 :      -0.4167    0.0833    0.0833
  band No.  band energies     occupation 
      1       0.3979      1.00000
      2       1.4949      1.00000
      3       2.1418      1.00000
      4       2.8421      1.00000
      5       3.2042      1.00000
      6       3.5448      1.00000
      7       3.7346      1.00000
      8       4.0479      1.00000
      9       4.4761      1.00000
     10       4.9753      1.00248
     11       5.1045      1.01962
     12       6.9974     -0.00000
     13      18.7325      0.00000
     14      19.1974      0.00000
     15      21.5503      0.00000
     16      22.4160      0.00000
     17      24.1754      0.00000
     18      25.7928      0.00000
     19      26.5834      0.00000
     20      28.1063      0.00000
     21      33.8125      0.00000
     22      35.9448      0.00000
     23      37.5174      0.00000
     24      37.9456      0.00000
     25      40.3800      0.00000
     26      41.1627      0.00000
     27      42.7123      0.00000
     28      44.6139      0.00000
     29      46.9302      0.00000
     30      47.9052      0.00000
     31      49.0542      0.00000
     32      51.2466      0.00000

 k-point     5 :      -0.2500    0.0833    0.0833
  band No.  band energies     occupation 
      1      -1.2555      1.00000
      2       1.4061      1.00000
      3       1.4378      1.00000
      4       3.0461      1.00000
      5       3.0987      1.00000
      6       3.9367      1.00000
      7       4.0431      1.00000
      8       4.1698      1.00000
      9       4.5824      1.00000
     10       4.7667      1.00001
     11       5.3882      0.70959
     12      10.5777     -0.00000
     13      16.2181      0.00000
     14      16.6181      0.00000
     15      22.7798      0.00000
     16      24.3616      0.00000
     17      24.7057      0.00000
     18      26.0495      0.00000
     19      29.5408      0.00000
     20      30.7566      0.00000
     21      30.8911      0.00000
     22      32.7292      0.00000
     23      35.2811      0.00000
     24      38.9393      0.00000
     25      39.5726      0.00000
     26      40.9619      0.00000
     27      43.7298      0.00000
     28      44.7039      0.00000
     29      45.4957      0.00000
     30      45.5425      0.00000
     31      46.9329      0.00000
     32      51.6403      0.00000

 k-point     6 :      -0.0833    0.0833    0.0833
  band No.  band energies     occupation 
      1      -2.2964      1.00000
      2       1.0246      1.00000
      3       1.0246      1.00000
      4       3.1604      1.00000
      5       3.1604      1.00000
      6       3.5006      1.00000
      7       4.3842      1.00000
      8       4.3842      1.00000
      9       4.9700      1.00222
     10       5.4490      0.46022
     11       5.4490      0.46022
     12      14.5621      0.00000
     13      14.5621      0.00000
     14      15.1634      0.00000
     15      22.1848      0.00000
     16      22.1848      0.00000
     17      26.9135      0.00000
     18      28.3421      0.00000
     19      28.3421      0.00000
     20      30.6732      0.00000
     21      32.7400      0.00000
     22      35.2981      0.00000
     23      35.2981      0.00000
     24      36.7751      0.00000
     25      36.7751      0.00000
     26      41.0795      0.00000
     27      41.4062      0.00000
     28      41.4062      0.00000
     29      42.7013      0.00000
     30      48.3397      0.00000
     31      50.3253      0.00000
     32      50.3253      0.00000

 k-point     7 :       0.0833    0.2500    0.0833
  band No.  band energies     occupation 
      1      -1.2555      1.00000
      2       1.4061      1.00000
      3       1.4378      1.00000
      4       3.0461      1.00000
      5       3.0987      1.00000
      6       3.9367      1.00000
      7       4.0431      1.00000
      8       4.1698      1.00000
      9       4.5824      1.00000
     10       4.7667      1.00001
     11       5.3882      0.70959
     12      10.5777     -0.00000
     13      16.2181      0.00000
     14      16.6181      0.00000
     15      22.7798      0.00000
     16      24.3616      0.00000
     17      24.7057      0.00000
     18      26.0495      0.00000
     19      29.5408      0.00000
     20      30.7566      0.00000
     21      30.8911      0.00000
     22      32.7292      0.00000
     23      35.2811      0.00000
     24      38.9393      0.00000
     25      39.5726      0.00000
     26      40.9619      0.00000
     27      43.7298      0.00000
     28      44.7039      0.00000
     29      45.4957      0.00000
     30      45.5425      0.00000
     31      46.9329      0.00000
     32      51.6403      0.00000

 k-point     8 :       0.2500    0.2500    0.0833
  band No.  band energies     occupation 
      1      -0.3754      1.00000
      2       1.5245      1.00000
      3       1.9666      1.00000
      4       2.6862      1.00000
      5       2.9872      1.00000
      6       3.3585      1.00000
      7       4.2801      1.00000
      8       4.4192      1.00000
      9       4.4856      1.00000
     10       4.6083      1.00000
     11       5.5471      0.11008
     12      10.8037     -0.00000
     13      13.2141      0.00000
     14      17.6804      0.00000
     15      21.0973      0.00000
     16      23.9279      0.00000
     17      25.2326      0.00000
     18      27.6380      0.00000
     19      28.1841      0.00000
     20      30.4514      0.00000
     21      32.0968      0.00000
     22      34.1040      0.00000
     23      36.2634      0.00000
     24      36.3548      0.00000
     25      39.1709      0.00000
     26      41.7937      0.00000
     27      42.1118      0.00000
     28      45.7865      0.00000
     29      48.1823      0.00000
     30      50.0078      0.00000
     31      50.0581      0.00000
     32      51.9962      0.00000

 k-point     9 :       0.4167    0.2500    0.0833
  band No.  band energies     occupation 
      1       0.7473      1.00000
      2       1.3778      1.00000
      3       2.5642      1.00000
      4       2.5654      1.00000
      5       2.9462      1.00000
      6       3.1197      1.00000
      7       4.1897      1.00000
      8       4.2450      1.00000
      9       4.7962      1.00003
     10       5.3676      0.78394
     11       5.4947      0.27641
     12       7.7004     -0.00000
     13      14.7246      0.00000
     14      17.5423      0.00000
     15      19.8332      0.00000
     16      22.5998      0.00000
     17      25.0409      0.00000
     18      26.5533      0.00000
     19      29.9435      0.00000
     20      30.3356      0.00000
     21      32.6403      0.00000
     22      33.7860      0.00000
     23      35.7331      0.00000
     24      37.2045      0.00000
     25      40.0768      0.00000
     26      43.4299      0.00000
     27      45.0706      0.00000
     28      47.3536      0.00000
     29      47.6783      0.00000
     30      51.1650      0.00000
     31      51.7747      0.00000
     32      52.4644      0.00000

 k-point    10 :      -0.4167    0.2500    0.0833
  band No.  band energies     occupation 
      1       0.7473      1.00000
      2       1.3778      1.00000
      3       2.5642      1.00000
      4       2.5654      1.00000
      5       2.9462      1.00000
      6       3.1197      1.00000
      7       4.1897      1.00000
      8       4.2450      1.00000
      9       4.7962      1.00003
     10       5.3676      0.78394
     11       5.4947      0.27641
     12       7.7004     -0.00000
     13      14.7246      0.00000
     14      17.5423      0.00000
     15      19.8332      0.00000
     16      22.5998      0.00000
     17      25.0409      0.00000
     18      26.5533      0.00000
     19      29.9435      0.00000
     20      30.3356      0.00000
     21      32.6403      0.00000
     22      33.7860      0.00000
     23      35.7331      0.00000
     24      37.2045      0.00000
     25      40.0768      0.00000
     26      43.4299      0.00000
     27      45.0706      0.00000
     28      47.3536      0.00000
     29      47.6783      0.00000
     30      51.1650      0.00000
     31      51.7747      0.00000
     32      52.4644      0.00000

 k-point    11 :      -0.2500    0.2500    0.0833
  band No.  band energies     occupation 
      1      -0.3754      1.00000
      2       1.5245      1.00000
      3       1.9666      1.00000
      4       2.6862      1.00000
      5       2.9872      1.00000
      6       3.3585      1.00000
      7       4.2801      1.00000
      8       4.4192      1.00000
      9       4.4856      1.00000
     10       4.6083      1.00000
     11       5.5471      0.11008
[...]
      8       6.0256     -0.00014
      9       6.5406     -0.00000
     10       7.1235     -0.00000
     11       7.6835     -0.00000
     12       8.7556     -0.00000
     13      19.4569      0.00000
     14      19.8128      0.00000
     15      22.1291      0.00000
     16      22.9732      0.00000
     17      24.6388      0.00000
     18      26.2234      0.00000
     19      26.9155      0.00000
     20      28.5245      0.00000
     21      34.1982      0.00000
     22      36.3842      0.00000
     23      37.7918      0.00000
     24      38.5698      0.00000
     25      40.8231      0.00000
     26      41.5058      0.00000
     27      43.1069      0.00000
     28      45.0588      0.00000
     29      47.6364      0.00000
     30      48.0742      0.00000
     31      49.5951      0.00000
     32      51.9662      0.00000

 k-point   104 :       0.2500   -0.0833    0.4167
  band No.  band energies     occupation 
      1       1.3453      1.00000
      2       2.6349      1.00000
      3       4.2519      1.00000
      4       4.3333      1.00000
      5       4.6677      1.00000
      6       4.6842      1.00000
      7       6.4325     -0.00000
      8       6.6330     -0.00000
      9       7.2809     -0.00000
     10       7.6009     -0.00000
     11       7.6527     -0.00000
     12       9.2285     -0.00000
     13      15.7034      0.00000
     14      18.3409      0.00000
     15      20.4171      0.00000
     16      23.0311      0.00000
     17      25.3753      0.00000
     18      26.9202      0.00000
     19      30.3083      0.00000
     20      30.6541      0.00000
     21      33.0072      0.00000
     22      34.1405      0.00000
     23      36.0876      0.00000
     24      37.6953      0.00000
     25      40.7189      0.00000
     26      43.6373      0.00000
     27      45.4773      0.00000
     28      47.8688      0.00000
     29      48.0474      0.00000
     30      51.9251      0.00000
     31      52.3640      0.00000
     32      52.6762      0.00000

 k-point   105 :       0.4167   -0.0833    0.4167
  band No.  band energies     occupation 
      1       1.9361      1.00000
      2       2.3163      1.00000
      3       3.9858      1.00000
      4       4.0788      1.00000
      5       5.2427      1.02344
      6       5.2986      0.96164
      7       6.8408     -0.00000
      8       6.9926     -0.00000
      9       7.3567     -0.00000
     10       7.6936     -0.00000
     11       8.1403     -0.00000
     12       8.9231     -0.00000
     13      13.9789      0.00000
     14      15.2649      0.00000
     15      21.8333      0.00000
     16      23.2488      0.00000
     17      25.3001      0.00000
     18      25.3229      0.00000
     19      30.0156      0.00000
     20      30.2897      0.00000
     21      33.9949      0.00000
     22      35.1332      0.00000
     23      36.3712      0.00000
     24      39.7877      0.00000
     25      41.3922      0.00000
     26      43.3389      0.00000
     27      47.6909      0.00000
     28      48.4879      0.00000
     29      50.6931      0.00000
     30      51.3425      0.00000
     31      54.0616      0.00000
     32      54.4413      0.00000

 k-point   106 :      -0.4167   -0.0833    0.4167
  band No.  band energies     occupation 
      1       1.9361      1.00000
      2       2.3163      1.00000
      3       3.9858      1.00000
      4       4.0788      1.00000
      5       5.2427      1.02344
      6       5.2986      0.96164
      7       6.8408     -0.00000
      8       6.9926     -0.00000
      9       7.3567     -0.00000
     10       7.6936     -0.00000
     11       8.1403     -0.00000
     12       8.9231     -0.00000
     13      13.9789      0.00000
     14      15.2649      0.00000
     15      21.8333      0.00000
     16      23.2488      0.00000
     17      25.3001      0.00000
     18      25.3229      0.00000
     19      30.0156      0.00000
     20      30.2897      0.00000
     21      33.9949      0.00000
     22      35.1332      0.00000
     23      36.3712      0.00000
     24      39.7877      0.00000
     25      41.3922      0.00000
     26      43.3389      0.00000
     27      47.6909      0.00000
     28      48.4879      0.00000
     29      50.6931      0.00000
     30      51.3425      0.00000
     31      54.0616      0.00000
     32      54.4413      0.00000

 k-point   107 :      -0.2500   -0.0833    0.4167
  band No.  band energies     occupation 
      1       1.3453      1.00000
      2       2.6349      1.00000
      3       4.2519      1.00000
      4       4.3333      1.00000
      5       4.6677      1.00000
      6       4.6842      1.00000
      7       6.4325     -0.00000
      8       6.6330     -0.00000
      9       7.2809     -0.00000
     10       7.6009     -0.00000
     11       7.6527     -0.00000
     12       9.2285     -0.00000
     13      15.7034      0.00000
     14      18.3409      0.00000
     15      20.4171      0.00000
     16      23.0311      0.00000
     17      25.3753      0.00000
     18      26.9202      0.00000
     19      30.3083      0.00000
     20      30.6541      0.00000
     21      33.0072      0.00000
     22      34.1405      0.00000
     23      36.0876      0.00000
     24      37.6953      0.00000
     25      40.7189      0.00000
     26      43.6373      0.00000
     27      45.4773      0.00000
     28      47.8688      0.00000
     29      48.0474      0.00000
     30      51.9251      0.00000
     31      52.3640      0.00000
     32      52.6762      0.00000

 k-point   108 :      -0.0833   -0.0833    0.4167
  band No.  band energies     occupation 
      1       0.7226      1.00000
      2       2.4882      1.00000
      3       4.1447      1.00000
      4       4.8158      1.00005
      5       5.0110      1.00490
      6       5.4056      0.64144
      7       5.9529     -0.00086
      8       6.0256     -0.00014
      9       6.5406     -0.00000
     10       7.1235     -0.00000
     11       7.6835     -0.00000
     12       8.7556     -0.00000
     13      19.4569      0.00000
     14      19.8128      0.00000
     15      22.1291      0.00000
     16      22.9732      0.00000
     17      24.6388      0.00000
     18      26.2234      0.00000
     19      26.9155      0.00000
     20      28.5245      0.00000
     21      34.1982      0.00000
     22      36.3842      0.00000
     23      37.7918      0.00000
     24      38.5698      0.00000
     25      40.8231      0.00000
     26      41.5058      0.00000
     27      43.1069      0.00000
     28      45.0588      0.00000
     29      47.6364      0.00000
     30      48.0742      0.00000
     31      49.5951      0.00000
     32      51.9662      0.00000


--------------------------------------------------------------------------------------------------------


 soft charge-density along one line, spin component           1
         0         1         2         3         4         5         6         7         8         9
 total charge-density along one line
 
 soft charge-density along one line, spin component           2
         0         1         2         3         4         5         6         7         8         9
 total charge-density along one line
 
 pseudopotential strength for first ion, spin component:           1
 -5.813   0.000   0.000   0.000   0.000  -6.337   0.000   0.000
  0.000  -5.813  -0.000  -0.000  -0.000   0.000  -6.337  -0.000
  0.000  -0.000  -5.987   0.000   0.000   0.000  -0.000  -6.507
  0.000  -0.000   0.000  -5.813  -0.000   0.000  -0.000   0.000
  0.000  -0.000   0.000  -0.000  -5.987   0.000  -0.000   0.000
 -6.337   0.000   0.000   0.000   0.000  -6.820   0.000   0.000
  0.000  -6.337  -0.000  -0.000  -0.000   0.000  -6.820  -0.000
  0.000  -0.000  -6.507   0.000   0.000   0.000  -0.000  -6.985
  0.000  -0.000   0.000  -6.337  -0.000   0.000   0.000   0.000
  0.000  -0.000   0.000  -0.000  -6.507   0.000  -0.000   0.000
  0.000  -0.000   0.000  -0.000  -0.000   0.000  -0.000   0.000
  0.000  -0.000   0.000  -0.000  -0.000   0.000  -0.000   0.000
 -0.000  -0.000  -0.000   0.000  -0.000  -0.000  -0.000  -0.000
  0.000  -0.000  -0.000  -0.000  -0.000   0.000  -0.000  -0.000
 -0.000   0.000   0.000  -0.000  -0.000  -0.000   0.000   0.000
 -0.000  -0.000  -0.000   0.000  -0.000  -0.000  -0.000  -0.000
  0.000  -0.000  -0.000  -0.000  -0.000   0.000  -0.000  -0.000
 -0.000   0.000   0.000  -0.000  -0.000  -0.000   0.000   0.000
 pseudopotential strength for first ion, spin component:           2
 -4.349   0.000  -0.000   0.000   0.000  -4.920   0.000  -0.000
  0.000  -4.349  -0.000   0.000   0.000   0.000  -4.920  -0.000
 -0.000  -0.000  -4.117  -0.000  -0.000  -0.000  -0.000  -4.693
  0.000   0.000  -0.000  -4.349   0.000   0.000   0.000  -0.000
  0.000   0.000  -0.000   0.000  -4.117   0.000   0.000  -0.000
 -4.920   0.000  -0.000   0.000   0.000  -5.448   0.000  -0.000
  0.000  -4.920  -0.000   0.000   0.000   0.000  -5.448  -0.000
 -0.000  -0.000  -4.693  -0.000  -0.000  -0.000  -0.000  -5.225
  0.000   0.000  -0.000  -4.920   0.000   0.000   0.000  -0.000
  0.000   0.000  -0.000   0.000  -4.693   0.000   0.000  -0.000
 -0.000   0.000   0.000  -0.000   0.000  -0.000   0.000   0.000
 -0.000   0.000   0.000  -0.000   0.000  -0.000   0.000   0.000
 -0.000  -0.000  -0.000  -0.000   0.000  -0.000  -0.000  -0.000
 -0.000  -0.000  -0.000  -0.000   0.000  -0.000  -0.000  -0.000
  0.000  -0.000   0.000  -0.000  -0.000   0.000  -0.000   0.000
 -0.000  -0.000  -0.000  -0.000   0.000  -0.000  -0.000  -0.000
 -0.000  -0.000  -0.000  -0.000   0.000  -0.000  -0.000  -0.000
  0.000  -0.000   0.000  -0.000  -0.000   0.000  -0.000   0.000
 total augmentation occupancy for first ion, spin component:           1
  2.230   0.000  -0.000  -0.000  -0.000  -1.184  -0.000   0.000   0.000   0.000   0.000  -0.000  -0.000  -0.000   0.000   0.000
  0.000   2.230  -0.000   0.000   0.000  -0.000  -1.184   0.000  -0.000  -0.000  -0.000   0.000   0.000   0.000  -0.000  -0.000
 -0.000  -0.000   3.555  -0.000  -0.000   0.000   0.000  -2.234   0.000  -0.000   0.000  -0.000   0.000   0.000   0.000  -0.000
 -0.000   0.000  -0.000   2.230   0.000   0.000  -0.000   0.000  -1.184  -0.000   0.000  -0.000   0.000   0.000  -0.000  -0.000
 -0.000   0.000  -0.000   0.000   3.555   0.000  -0.000  -0.000  -0.000  -2.234  -0.000   0.000  -0.000  -0.000  -0.000  -0.000
 -1.184  -0.000   0.000   0.000   0.000   1.526   0.000  -0.000   0.000  -0.000   0.000  -0.000   0.000  -0.000  -0.000  -0.000
 -0.000  -1.184   0.000  -0.000  -0.000   0.000   1.526  -0.000   0.000   0.000   0.000  -0.000  -0.000  -0.000   0.000   0.000
  0.000   0.000  -2.234   0.000  -0.000  -0.000  -0.000   2.177  -0.000   0.000  -0.000   0.000  -0.000  -0.000  -0.000   0.000
  0.000  -0.000   0.000  -1.184  -0.000   0.000   0.000  -0.000   1.526   0.000   0.000   0.000  -0.000  -0.000   0.000   0.000
  0.000  -0.000  -0.000  -0.000  -2.234  -0.000   0.000   0.000   0.000   2.177   0.000  -0.000   0.000   0.000  -0.000  -0.000
  0.000  -0.000   0.000   0.000  -0.000   0.000   0.000  -0.000   0.000   0.000   2.333  -0.265   0.000   0.000   0.000  -0.000
 -0.000   0.000  -0.000  -0.000   0.000  -0.000  -0.000   0.000   0.000  -0.000  -0.265   0.036  -0.000  -0.000  -0.000   0.000
 -0.000   0.000   0.000   0.000  -0.000   0.000  -0.000  -0.000  -0.000   0.000   0.000  -0.000   0.283   0.000   0.000  -0.024
 -0.000   0.000   0.000   0.000  -0.000  -0.000  -0.000  -0.000  -0.000   0.000   0.000  -0.000   0.000   0.283   0.000  -0.000
  0.000  -0.000   0.000  -0.000  -0.000  -0.000   0.000  -0.000   0.000  -0.000   0.000  -0.000   0.000   0.000   0.283  -0.000
  0.000  -0.000  -0.000  -0.000  -0.000  -0.000   0.000   0.000   0.000  -0.000  -0.000   0.000  -0.024  -0.000  -0.000   0.002
  0.000  -0.000  -0.000  -0.000   0.000   0.000   0.000   0.000   0.000  -0.000  -0.000   0.000  -0.000  -0.024  -0.000   0.000
 -0.000   0.000  -0.000   0.000   0.000   0.000  -0.000   0.000  -0.000   0.000  -0.000   0.000  -0.000   0.000  -0.024   0.000
 total augmentation occupancy for first ion, spin component:           2
  1.878   0.000  -0.000  -0.000  -0.000  -0.782   0.000   0.000   0.000   0.000   0.000  -0.000   0.000  -0.000  -0.000  -0.000
  0.000   1.878  -0.000   0.000   0.000  -0.000  -0.782   0.000  -0.000  -0.000  -0.000   0.000  -0.000  -0.000  -0.000   0.000
 -0.000  -0.000   3.079  -0.000  -0.000   0.000   0.000  -1.374   0.000   0.000   0.000  -0.000   0.000   0.000   0.000  -0.000
 -0.000   0.000  -0.000   1.878   0.000   0.000  -0.000   0.000  -0.782  -0.000   0.000  -0.000   0.000   0.000   0.000  -0.000
 -0.000   0.000  -0.000   0.000   3.079   0.000  -0.000   0.000  -0.000  -1.374  -0.000   0.000   0.000  -0.000  -0.000  -0.000
 -0.782  -0.000   0.000   0.000   0.000   0.081  -0.000  -0.000  -0.000   0.000   0.000  -0.000  -0.000  -0.000   0.000   0.000
  0.000  -0.782   0.000  -0.000  -0.000  -0.000   0.081  -0.000   0.000   0.000   0.000  -0.000   0.000   0.000   0.000   0.000
  0.000   0.000  -1.374   0.000   0.000  -0.000  -0.000   0.388  -0.000  -0.000  -0.000   0.000  -0.000  -0.000  -0.000   0.000
  0.000  -0.000   0.000  -0.782  -0.000  -0.000   0.000  -0.000   0.081   0.000   0.000  -0.000   0.000  -0.000   0.000  -0.000
  0.000  -0.000   0.000  -0.000  -1.374   0.000   0.000  -0.000   0.000   0.388   0.000  -0.000  -0.000   0.000  -0.000  -0.000
  0.000  -0.000   0.000   0.000  -0.000   0.000   0.000  -0.000   0.000   0.000  -0.327   0.098   0.000   0.000   0.000  -0.000
 -0.000   0.000  -0.000  -0.000   0.000  -0.000  -0.000   0.000  -0.000  -0.000   0.098  -0.017  -0.000  -0.000  -0.000   0.000
  0.000  -0.000   0.000   0.000   0.000  -0.000   0.000  -0.000   0.000  -0.000   0.000  -0.000  -0.042   0.000   0.000   0.006
 -0.000  -0.000   0.000   0.000  -0.000  -0.000   0.000  -0.000  -0.000   0.000   0.000  -0.000   0.000  -0.042   0.000  -0.000
 -0.000  -0.000   0.000   0.000  -0.000   0.000   0.000  -0.000   0.000  -0.000   0.000  -0.000   0.000   0.000  -0.042  -0.000
 -0.000   0.000  -0.000  -0.000  -0.000   0.000   0.000   0.000  -0.000  -0.000  -0.000   0.000   0.006  -0.000  -0.000  -0.001
  0.000  -0.000  -0.000  -0.000   0.000   0.000  -0.000   0.000   0.000  -0.000  -0.000   0.000  -0.000   0.006  -0.000   0.000
  0.000   0.000  -0.000  -0.000   0.000  -0.000  -0.000   0.000  -0.000   0.000  -0.000   0.000  -0.000   0.000   0.006   0.000


------------------------ aborting loop because EDIFF is reached ----------------------------------------


    CHARGE:  cpu time    0.0220: real time    0.0230
    FORLOC:  cpu time    0.0000: real time    0.0001
    FORNL :  cpu time    0.0720: real time    0.0715
    STRESS:  cpu time    0.3969: real time    0.3981
    FORCOR:  cpu time    0.0060: real time    0.0051
    FORHAR:  cpu time    0.0010: real time    0.0007
    MIXING:  cpu time    0.0000: real time    0.0003
    OFIELD:  cpu time    0.0010: real time    0.0001

  FORCE on cell =-STRESS in cart. coord.  units (eV):
  Direction    XX          YY          ZZ          XY          YZ          ZX
  --------------------------------------------------------------------------------------
  Alpha Z   118.17525   118.17525   118.17525
  Ewald    -390.89368  -390.89368  -390.89368     0.00000     0.00000     0.00000
  Hartree    64.68004    64.68004    64.68004     0.00000     0.00000     0.00000
  E(xc)     -79.16774   -79.16774   -79.16774    -0.00000    -0.00000    -0.00000
  Local     116.14457   116.14457   116.14457    -0.00000    -0.00000    -0.00000
  n-local   -52.18102   -52.18103   -52.18102    -0.00000    -0.00000    -0.00000
  augment    77.55096    77.55096    77.55096    -0.00000     0.00000    -0.00000
  Kinetic   144.73055   144.73055   144.73055    -0.00000    -0.00000    -0.00000
  Fock        0.00000     0.00000     0.00000     0.00000     0.00000     0.00000
  -------------------------------------------------------------------------------------
  Total      -0.96107    -0.96108    -0.96108    -0.00000    -0.00000    -0.00000
  in kB     -65.82180   -65.82214   -65.82190    -0.00008    -0.00006    -0.00007
  external pressure =      -65.82 kB  Pullay stress =        0.00 kB


 VOLUME and BASIS-vectors are now :
 -----------------------------------------------------------------------------
  energy-cutoff  :      600.00
  volume of cell :       23.39
      direct lattice vectors                 reciprocal lattice vectors
     2.860000000  0.000000000  0.000000000     0.349650350  0.000000000  0.000000000
     0.000000000  2.860000000  0.000000000     0.000000000  0.349650350  0.000000000
     0.000000000  0.000000000  2.860000000     0.000000000  0.000000000  0.349650350

  length of vectors
     2.860000000  2.860000000  2.860000000     0.349650350  0.349650350  0.349650350


 FORCES acting on ions
    electron-ion (+dipol)            ewald-force                    non-local-force                 convergence-correction
 -----------------------------------------------------------------------------------------------
   0.107E-06 -.323E-07 0.101E-06   0.219E-14 -.742E-15 -.130E-14   0.160E-06 0.104E-06 0.890E-07   0.669E-07 -.114E-07 0.283E-07
   -.425E-07 0.258E-07 0.420E-07   -.209E-14 0.143E-14 -.194E-15   -.125E-06 0.133E-08 -.276E-07   0.978E-07 -.694E-07 -.627E-09
 -----------------------------------------------------------------------------------------------
   0.641E-07 -.654E-08 0.143E-06   0.102E-15 0.685E-15 -.150E-14   0.345E-07 0.106E-06 0.614E-07   0.165E-06 -.808E-07 0.277E-07
 
 
 POSITION                                       TOTAL-FORCE (eV/Angst)
 -----------------------------------------------------------------------------------
      0.00000      0.00000      0.00000         0.000000      0.000000      0.000000
      1.43000      1.43000      1.43000        -0.000000     -0.000000     -0.000000
 -----------------------------------------------------------------------------------
    total drift:                                0.000000      0.000000      0.000000


--------------------------------------------------------------------------------------------------------



  FREE ENERGIE OF THE ION-ELECTRON SYSTEM (eV)
  ---------------------------------------------------
  free  energy   TOTEN  =       -16.43484319 eV

  energy  without entropy=      -16.41709212  energy(sigma->0) =      -16.42892617
 


--------------------------------------------------------------------------------------------------------


    POTLOK:  cpu time    0.0120: real time    0.0133


--------------------------------------------------------------------------------------------------------




--------------------------------------------------------------------------------------------------------


  
 reached required accuracy - stopping structural energy minimisation
     LOOP+:  cpu time   55.5496: real time   55.7913
    4ORBIT:  cpu time    0.0000: real time    0.0000

 total amount of memory used by VASP on root node    46296. kBytes
========================================================================

   base      :      30000. kBytes
   nonl-proj :      12467. kBytes
   fftplans  :        111. kBytes
   grid      :        671. kBytes
   one-center:         62. kBytes
   wavefun   :       2985. kBytes
 
  
  
 General timing and accounting informations for this job:
 ========================================================
  
                  Total CPU time used (sec):       57.613
                            User time (sec):       54.779
                          System time (sec):        2.835
                         Elapsed time (sec):       58.267
  
                   Maximum memory used (kb):       90456.
                   Average memory used (kb):           0.
  
                          Minor page faults:      1089408
                          Major page faults:            0
                 Voluntary context switches:         7865
