 vasp.5.4.1 24Jun15 (build May 02 2016 14:41:14) complex                        
  
 executed on           IFC91_ompi date 2025.11.12  12:13:52
 running on   32 total cores
 distrk:  each k-point on   32 cores,    1 groups
 distr:  one band on NCORES_PER_BAND=   1 cores,   32 groups


--------------------------------------------------------------------------------------------------------


 INCAR:
 POTCAR:    PAW_PBE Fe 06Sep2000                  

 ----------------------------------------------------------------------------- 
|                                                                             |
|           W    W    AA    RRRRR   N    N  II  N    N   GGGG   !!!           |
|           W    W   A  A   R    R  NN   N  II  NN   N  G    G  !!!           |
|           W    W  A    A  R    R  N N  N  II  N N  N  G       !!!           |
|           W WW W  AAAAAA  RRRRR   N  N N  II  N  N N  G  GGG   !            |
|           WW  WW  A    A  R   R   N   NN  II  N   NN  G    G                |
|           W    W  A    A  R    R  N    N  II  N    N   GGGG   !!!           |
|                                                                             |
|      For optimal performance we recommend to set                            |
|        NCORE= 4 - approx SQRT( number of cores)                             |
|      NCORE specifies how many cores store one orbital (NPAR=cpu/NCORE).     |
|      This setting can  greatly improve the performance of VASP for DFT.     |
|      The default, NPAR=number of cores might be grossly inefficient         |
|      on modern multi-core architectures or massively parallel machines.     |
|      Do your own testing !!!!                                               |
|      Unfortunately you need to use the default for GW and RPA calculations. |
|      (for HF NCORE is supported but not extensively tested yet)             |
|                                                                             |
 ----------------------------------------------------------------------------- 

 POTCAR:    PAW_PBE Fe 06Sep2000                  
   VRHFIN =Fe:  d7 s1                                                           
   LEXCH  = PE                                                                  
   EATOM  =   594.3153 eV,   43.6809 Ry                                         
                                                                                
   TITEL  = PAW_PBE Fe 06Sep2000                                                
   LULTRA =        F    use ultrasoft PP ?                                      
   IUNSCR =        1    unscreen: 0-lin 1-nonlin 2-no                           
   RPACOR =    2.000    partial core radius                                     
   POMASS =   55.847; ZVAL   =    8.000    mass and valenz                      
   RCORE  =    2.300    outmost cutoff radius                                   
   RWIGS  =    2.460; RWIGS  =    1.302    wigner-seitz radius (au A)           
   ENMAX  =  267.882; ENMIN  =  200.911 eV                                      
   RCLOC  =    1.701    cutoff for local pot                                    
   LCOR   =        T    correct aug charges                                     
   LPAW   =        T    paw PP                                                  
   EAUG   =  511.368                                                            
   DEXC   =    0.000                                                            
   RMAX   =    2.356    core radius for proj-oper                               
   RAUG   =    1.300    factor for augmentation sphere                          
   RDEP   =    2.442    radius for radial grids                                 
   RDEPT  =    1.890    core radius for aug-charge                              
                                                                                
   Atomic configuration                                                         
    9 entries                                                                   
     n  l   j            E        occ.                                          
     1  0  0.50     -6993.8440   2.0000                                         
     2  0  0.50      -814.6047   2.0000                                         
     2  1  1.50      -693.3689   6.0000                                         
     3  0  0.50       -89.4732   2.0000                                         
     3  1  1.50       -55.6373   6.0000                                         
     3  2  2.50        -3.8151   7.0000                                         
     4  0  0.50        -4.2551   1.0000                                         
     4  1  1.50        -3.4015   0.0000                                         
     4  3  2.50        -1.3606   0.0000                                         
   Description                                                                  
     l       E           TYP  RCUT    TYP  RCUT                                 
     2     -3.8151135     23  2.300                                             
     2     -5.1756961     23  2.300                                             
     0     -4.2550963     23  2.300                                             
     0      7.2035603     23  2.300                                             
     1     -2.7211652     23  2.300                                             
     1     18.4316424     23  2.300                                             
  local pseudopotential read in
  partial core-charges read in
  partial kinetic energy density read in
  atomic valenz-charges read in
  non local Contribution for L=           2  read in
    real space projection operators read in
  non local Contribution for L=           2  read in
    real space projection operators read in
  non local Contribution for L=           0  read in
    real space projection operators read in
  non local Contribution for L=           0  read in
    real space projection operators read in
  non local Contribution for L=           1  read in
    real space projection operators read in
  non local Contribution for L=           1  read in
    real space projection operators read in
    PAW grid and wavefunctions read in
 
   number of l-projection  operators is LMAX  =           6
   number of lm-projection operators is LMMAX =          18
 
  PAW_PBE Fe 06Sep2000                  :
 energy of atom  1       EATOM= -594.3153
 kinetic energy error for atom=    0.0034 (will be added to EATOM!!)
 
 
 POSCAR: BCC Fe                                  
  positions in cartesian coordinates
  No initial velocities read in
 exchange correlation table for  LEXCH =        8
   RHO(1)=    0.500       N(1)  =     2000
   RHO(2)=  100.500       N(2)  =     4000
 


--------------------------------------------------------------------------------------------------------


 ion  position               nearest neighbor table
   1  0.000  0.000  0.000-   2 2.48   2 2.48   2 2.48   2 2.48   2 2.48   2 2.48   2 2.48   2 2.48

   2  0.500  0.500  0.500-   1 2.48   1 2.48   1 2.48   1 2.48   1 2.48   1 2.48   1 2.48   1 2.48

 

IMPORTANT INFORMATION: All symmetrisations will be switched off!
NOSYMM: (Re-)initialisation of all symmetry stuff for point group C_1.

 
 
 KPOINTS: Automatic mesh                          

Automatic generation of k-mesh.
Space group operators:
 irot       det(A)        alpha          n_x          n_y          n_z        tau_x        tau_y        tau_z
    1     1.000000     0.000001     1.000000     0.000000     0.000000     0.000000     0.000000     0.000000
 
 Subroutine IBZKPT returns following result:
 ===========================================
 
 Found    108 irreducible k-points:
 
 Following reciprocal coordinates:
            Coordinates               Weight
  0.083333  0.083333  0.083333      2.000000
  0.250000  0.083333  0.083333      2.000000
  0.416667  0.083333  0.083333      2.000000
 -0.416667  0.083333  0.083333      2.000000
 -0.250000  0.083333  0.083333      2.000000
 -0.083333  0.083333  0.083333      2.000000
  0.083333  0.250000  0.083333      2.000000
  0.250000  0.250000  0.083333      2.000000
  0.416667  0.250000  0.083333      2.000000
 -0.416667  0.250000  0.083333      2.000000
 -0.250000  0.250000  0.083333      2.000000
 -0.083333  0.250000  0.083333      2.000000
  0.083333  0.416667  0.083333      2.000000
  0.250000  0.416667  0.083333      2.000000
  0.416667  0.416667  0.083333      2.000000
 -0.416667  0.416667  0.083333      2.000000
 -0.250000  0.416667  0.083333      2.000000
 -0.083333  0.416667  0.083333      2.000000
  0.083333 -0.416667  0.083333      2.000000
  0.250000 -0.416667  0.083333      2.000000
  0.416667 -0.416667  0.083333      2.000000
 -0.416667 -0.416667  0.083333      2.000000
 -0.250000 -0.416667  0.083333      2.000000
 -0.083333 -0.416667  0.083333      2.000000
  0.083333 -0.250000  0.083333      2.000000
  0.250000 -0.250000  0.083333      2.000000
  0.416667 -0.250000  0.083333      2.000000
 -0.416667 -0.250000  0.083333      2.000000
 -0.250000 -0.250000  0.083333      2.000000
 -0.083333 -0.250000  0.083333      2.000000
  0.083333 -0.083333  0.083333      2.000000
  0.250000 -0.083333  0.083333      2.000000
  0.416667 -0.083333  0.083333      2.000000
 -0.416667 -0.083333  0.083333      2.000000
 -0.250000 -0.083333  0.083333      2.000000
 -0.083333 -0.083333  0.083333      2.000000
  0.083333  0.083333  0.250000      2.000000
  0.250000  0.083333  0.250000      2.000000
  0.416667  0.083333  0.250000      2.000000
 -0.416667  0.083333  0.250000      2.000000
 -0.250000  0.083333  0.250000      2.000000
 -0.083333  0.083333  0.250000      2.000000
  0.083333  0.250000  0.250000      2.000000
  0.250000  0.250000  0.250000      2.000000
  0.416667  0.250000  0.250000      2.000000
 -0.416667  0.250000  0.250000      2.000000
 -0.250000  0.250000  0.250000      2.000000
 -0.083333  0.250000  0.250000      2.000000
  0.083333  0.416667  0.250000      2.000000
  0.250000  0.416667  0.250000      2.000000
  0.416667  0.416667  0.250000      2.000000
 -0.416667  0.416667  0.250000      2.000000
 -0.250000  0.416667  0.250000      2.000000
 -0.083333  0.416667  0.250000      2.000000
  0.083333 -0.416667  0.250000      2.000000
  0.250000 -0.416667  0.250000      2.000000
  0.416667 -0.416667  0.250000      2.000000
 -0.416667 -0.416667  0.250000      2.000000
 -0.250000 -0.416667  0.250000      2.000000
 -0.083333 -0.416667  0.250000      2.000000
  0.083333 -0.250000  0.250000      2.000000
  0.250000 -0.250000  0.250000      2.000000
  0.416667 -0.250000  0.250000      2.000000
 -0.416667 -0.250000  0.250000      2.000000
 -0.250000 -0.250000  0.250000      2.000000
 -0.083333 -0.250000  0.250000      2.000000
  0.083333 -0.083333  0.250000      2.000000
  0.250000 -0.083333  0.250000      2.000000
  0.416667 -0.083333  0.250000      2.000000
 -0.416667 -0.083333  0.250000      2.000000
 -0.250000 -0.083333  0.250000      2.000000
 -0.083333 -0.083333  0.250000      2.000000
  0.083333  0.083333  0.416667      2.000000
  0.250000  0.083333  0.416667      2.000000
  0.416667  0.083333  0.416667      2.000000
 -0.416667  0.083333  0.416667      2.000000
 -0.250000  0.083333  0.416667      2.000000
 -0.083333  0.083333  0.416667      2.000000
  0.083333  0.250000  0.416667      2.000000
  0.250000  0.250000  0.416667      2.000000
  0.416667  0.250000  0.416667      2.000000
 -0.416667  0.250000  0.416667      2.000000
 -0.250000  0.250000  0.416667      2.000000
 -0.083333  0.250000  0.416667      2.000000
  0.083333  0.416667  0.416667      2.000000
  0.250000  0.416667  0.416667      2.000000
  0.416667  0.416667  0.416667      2.000000
 -0.416667  0.416667  0.416667      2.000000
 -0.250000  0.416667  0.416667      2.000000
 -0.083333  0.416667  0.416667      2.000000
  0.083333 -0.416667  0.416667      2.000000
  0.250000 -0.416667  0.416667      2.000000
  0.416667 -0.416667  0.416667      2.000000
 -0.416667 -0.416667  0.416667      2.000000
 -0.250000 -0.416667  0.416667      2.000000
 -0.083333 -0.416667  0.416667      2.000000
  0.083333 -0.250000  0.416667      2.000000
  0.250000 -0.250000  0.416667      2.000000
  0.416667 -0.250000  0.416667      2.000000
 -0.416667 -0.250000  0.416667      2.000000
 -0.250000 -0.250000  0.416667      2.000000
 -0.083333 -0.250000  0.416667      2.000000
  0.083333 -0.083333  0.416667      2.000000
  0.250000 -0.083333  0.416667      2.000000
  0.416667 -0.083333  0.416667      2.000000
 -0.416667 -0.083333  0.416667      2.000000
 -0.250000 -0.083333  0.416667      2.000000
 -0.083333 -0.083333  0.416667      2.000000
 
 Following cartesian coordinates:
            Coordinates               Weight
  0.083333  0.083333  0.083333      2.000000
  0.250000  0.083333  0.083333      2.000000
  0.416667  0.083333  0.083333      2.000000
 -0.416667  0.083333  0.083333      2.000000
 -0.250000  0.083333  0.083333      2.000000
 -0.083333  0.083333  0.083333      2.000000
  0.083333  0.250000  0.083333      2.000000
  0.250000  0.250000  0.083333      2.000000
  0.416667  0.250000  0.083333      2.000000
 -0.416667  0.250000  0.083333      2.000000
 -0.250000  0.250000  0.083333      2.000000
 -0.083333  0.250000  0.083333      2.000000
  0.083333  0.416667  0.083333      2.000000
  0.250000  0.416667  0.083333      2.000000
  0.416667  0.416667  0.083333      2.000000
 -0.416667  0.416667  0.083333      2.000000
 -0.250000  0.416667  0.083333      2.000000
 -0.083333  0.416667  0.083333      2.000000
  0.083333 -0.416667  0.083333      2.000000
  0.250000 -0.416667  0.083333      2.000000
  0.416667 -0.416667  0.083333      2.000000
 -0.416667 -0.416667  0.083333      2.000000
 -0.250000 -0.416667  0.083333      2.000000
 -0.083333 -0.416667  0.083333      2.000000
  0.083333 -0.250000  0.083333      2.000000
  0.250000 -0.250000  0.083333      2.000000
  0.416667 -0.250000  0.083333      2.000000
 -0.416667 -0.250000  0.083333      2.000000
 -0.250000 -0.250000  0.083333      2.000000
 -0.083333 -0.250000  0.083333      2.000000
  0.083333 -0.083333  0.083333      2.000000
  0.250000 -0.083333  0.083333      2.000000
  0.416667 -0.083333  0.083333      2.000000
 -0.416667 -0.083333  0.083333      2.000000
 -0.250000 -0.083333  0.083333      2.000000
 -0.083333 -0.083333  0.083333      2.000000
  0.083333  0.083333  0.250000      2.000000
  0.250000  0.083333  0.250000      2.000000
  0.416667  0.083333  0.250000      2.000000
 -0.416667  0.083333  0.250000      2.000000
 -0.250000  0.083333  0.250000      2.000000
 -0.083333  0.083333  0.250000      2.000000
  0.083333  0.250000  0.250000      2.000000
  0.250000  0.250000  0.250000      2.000000
  0.416667  0.250000  0.250000      2.000000
 -0.416667  0.250000  0.250000      2.000000
 -0.250000  0.250000  0.250000      2.000000
 -0.083333  0.250000  0.250000      2.000000
  0.083333  0.416667  0.250000      2.000000
  0.250000  0.416667  0.250000      2.000000
  0.416667  0.416667  0.250000      2.000000
 -0.416667  0.416667  0.250000      2.000000
 -0.250000  0.416667  0.250000      2.000000
 -0.083333  0.416667  0.250000      2.000000
  0.083333 -0.416667  0.250000      2.000000
  0.250000 -0.416667  0.250000      2.000000
  0.416667 -0.416667  0.250000      2.000000
 -0.416667 -0.416667  0.250000      2.000000
 -0.250000 -0.416667  0.250000      2.000000
 -0.083333 -0.416667  0.250000      2.000000
  0.083333 -0.250000  0.250000      2.000000
  0.250000 -0.250000  0.250000      2.000000
  0.416667 -0.250000  0.250000      2.000000
 -0.416667 -0.250000  0.250000      2.000000
 -0.250000 -0.250000  0.250000      2.000000
 -0.083333 -0.250000  0.250000      2.000000
  0.083333 -0.083333  0.250000      2.000000
  0.250000 -0.083333  0.250000      2.000000
  0.416667 -0.083333  0.250000      2.000000
 -0.416667 -0.083333  0.250000      2.000000
 -0.250000 -0.083333  0.250000      2.000000
 -0.083333 -0.083333  0.250000      2.000000
  0.083333  0.083333  0.416667      2.000000
  0.250000  0.083333  0.416667      2.000000
  0.416667  0.083333  0.416667      2.000000
 -0.416667  0.083333  0.416667      2.000000
 -0.250000  0.083333  0.416667      2.000000
 -0.083333  0.083333  0.416667      2.000000
  0.083333  0.250000  0.416667      2.000000
  0.250000  0.250000  0.416667      2.000000
  0.416667  0.250000  0.416667      2.000000
 -0.416667  0.250000  0.416667      2.000000
 -0.250000  0.250000  0.416667      2.000000
 -0.083333  0.250000  0.416667      2.000000
  0.083333  0.416667  0.416667      2.000000
  0.250000  0.416667  0.416667      2.000000
  0.416667  0.416667  0.416667      2.000000
 -0.416667  0.416667  0.416667      2.000000
 -0.250000  0.416667  0.416667      2.000000
 -0.083333  0.416667  0.416667      2.000000
  0.083333 -0.416667  0.416667      2.000000
  0.250000 -0.416667  0.416667      2.000000
  0.416667 -0.416667  0.416667      2.000000
 -0.416667 -0.416667  0.416667      2.000000
 -0.250000 -0.416667  0.416667      2.000000
 -0.083333 -0.416667  0.416667      2.000000
  0.083333 -0.250000  0.416667      2.000000
  0.250000 -0.250000  0.416667      2.000000
  0.416667 -0.250000  0.416667      2.000000
 -0.416667 -0.250000  0.416667      2.000000
 -0.250000 -0.250000  0.416667      2.000000
 -0.083333 -0.250000  0.416667      2.000000
  0.083333 -0.083333  0.416667      2.000000
  0.250000 -0.083333  0.416667      2.000000
  0.416667 -0.083333  0.416667      2.000000
 -0.416667 -0.083333  0.416667      2.000000
 -0.250000 -0.083333  0.416667      2.000000
 -0.083333 -0.083333  0.416667      2.000000
 


--------------------------------------------------------------------------------------------------------




 Dimension of arrays:
   k-points           NKPTS =    108   k-points in BZ     NKDIM =    108   number of bands    NBANDS=     32
   number of dos      NEDOS =    301   number of ions     NIONS =      2
   non local maximal  LDIM  =      6   non local SUM 2l+1 LMDIM =     18
   total plane-waves  NPLWV =   4096
   max r-space proj   IRMAX =      1   max aug-charges    IRDMAX=   6436
   dimension x,y,z NGX =    16 NGY =   16 NGZ =   16
   dimension x,y,z NGXF=    32 NGYF=   32 NGZF=   32
   support grid    NGXF=    32 NGYF=   32 NGZF=   32
   ions per type =               2
 NGX,Y,Z   is equivalent  to a cutoff of   9.30,  9.30,  9.30 a.u.
 NGXF,Y,Z  is equivalent  to a cutoff of  18.60, 18.60, 18.60 a.u.


 I would recommend the setting:
   dimension x,y,z NGX =    15 NGY =   15 NGZ =   15
 SYSTEM =  Fe Bulk                                 
 POSCAR =  BCC Fe                                  

 Startparameter for this run:
   NWRITE =      2    write-flag & timer
   PREC   = normal    normal or accurate (medium, high low for compatibility)
   ISTART =      0    job   : 0-new  1-cont  2-samecut
   ICHARG =      2    charge: 1-file 2-atom 10-const
   ISPIN  =      2    spin polarized calculation?
   LNONCOLLINEAR =      F non collinear calculations
   LSORBIT =      F    spin-orbit coupling
   INIWAV =      1    electr: 0-lowe 1-rand  2-diag
   LASPH  =      F    aspherical Exc in radial PAW
   METAGGA=      F    non-selfconsistent MetaGGA calc.

 Electronic Relaxation 1
   ENCUT  =  450.0 eV  33.07 Ry    5.75 a.u.   4.95  4.95  4.95*2*pi/ulx,y,z
   ENINI  =  450.0     initial cutoff
   ENAUG  =  511.4 eV  augmentation charge cutoff
   NELM   =     60;   NELMIN=  6; NELMDL= -5     # of ELM steps 
   EDIFF  = 0.1E-04   stopping-criterion for ELM
   LREAL  =      F    real-space projection
   NLSPLINE    = F    spline interpolate recip. space projectors
   LCOMPAT=      F    compatible to vasp.4.4
   GGA_COMPAT  = T    GGA compatible to vasp.4.4-vasp.4.6
   LMAXPAW     = -100 max onsite density
   LMAXMIX     =    2 max onsite mixed and CHGCAR
   VOSKOWN=      0    Vosko Wilk Nusair interpolation
   ROPT   =    0.00000
 Ionic relaxation
   EDIFFG = -.1E-01   stopping-criterion for IOM
   NSW    =     20    number of steps for IOM
   NBLOCK =      1;   KBLOCK =     20    inner block; outer block 
   IBRION =      2    ionic relax: 0-MD 1-quasi-New 2-CG
   NFREE  =      1    steps in history (QN), initial steepest desc. (CG)
   ISIF   =      2    stress and relaxation
   IWAVPR =     11    prediction:  0-non 1-charg 2-wave 3-comb
   ISYM   =      0    0-nonsym 1-usesym 2-fastsym
   LCORR  =      T    Harris-Foulkes like correction to forces

   POTIM  = 0.5000    time-step for ionic-motion
   TEIN   =    0.0    initial temperature
   TEBEG  =    0.0;   TEEND  =   0.0 temperature during run
   SMASS  =  -3.00    Nose mass-parameter (am)
   estimated Nose-frequenzy (Omega)   =  0.10E-29 period in steps =****** mass=  -0.187E-27a.u.
   SCALEE = 1.0000    scale energy and forces
   NPACO  =    256;   APACO  = 16.0  distance and # of slots for P.C.
   PSTRESS=    0.0 pullay stress

  Mass of Ions in am
   POMASS =  55.85
  Ionic Valenz
   ZVAL   =   8.00
  Atomic Wigner-Seitz radii
   RWIGS  =  -1.00
  virtual crystal weights 
   VCA    =   1.00
   NELECT =      16.0000    total number of electrons
   NUPDOWN=      -1.0000    fix difference up-down

 DOS related values:
   EMIN   =  10.00;   EMAX   =-10.00  energy-range for DOS
   EFERMI =   0.00
   ISMEAR =     1;   SIGMA  =   0.20  broadening in eV -4-tet -1-fermi 0-gaus

 Electronic relaxation 2 (details)
   IALGO  =     38    algorithm
   LDIAG  =      T    sub-space diagonalisation (order eigenvalues)
   LSUBROT=      F    optimize rotation matrix (better conditioning)
   TURBO    =      0    0=normal 1=particle mesh
   IRESTART =      0    0=no restart 2=restart with 2 vectors
   NREBOOT  =      0    no. of reboots
   NMIN     =      0    reboot dimension
   EREF     =   0.00    reference energy to select bands
   IMIX   =      4    mixing-type and parameters
     AMIX     =   0.40;   BMIX     =  1.00
     AMIX_MAG =   1.60;   BMIX_MAG =  1.00
     AMIN     =   0.10
     WC   =   100.;   INIMIX=   1;  MIXPRE=   1;  MAXMIX=  40

 Intra band minimization:
   WEIMIN = 0.0010     energy-eigenvalue tresh-hold
   EBREAK =  0.78E-07  absolut break condition
   DEPER  =   0.30     relativ break condition  

   TIME   =   0.40     timestep for ELM

  volume/ion in A,a.u.               =      11.70        78.93
  Fermi-wavevector in a.u.,A,eV,Ry     =   1.442388  2.725718 28.306695  2.080483
  Thomas-Fermi vector in A             =   2.560914
 
 Write flags
   LWAVE  =      F    write WAVECAR
   LCHARG =      F    write CHGCAR
   LVTOT  =      F    write LOCPOT, total local potential
   LVHAR  =      F    write LOCPOT, Hartree potential only
   LELF   =      F    write electronic localiz. function (ELF)
   LORBIT =      0    0 simple, 1 ext, 2 COOP (PROOUT)


 Dipole corrections
   LMONO  =      F    monopole corrections only (constant potential shift)
   LDIPOL =      F    correct potential (dipole corrections)
   IDIPOL =      0    1-x, 2-y, 3-z, 4-all directions 
   EPSILON=  1.0000000 bulk dielectric constant

 Exchange correlation treatment:
   GGA     =    PE    GGA type
   LEXCH   =     8    internal setting for exchange type
   VOSKOWN=      0    Vosko Wilk Nusair interpolation
   LHFCALC =     F    Hartree Fock is set to
   LHFONE  =     F    Hartree Fock one center treatment
   AEXX    =    0.0000 exact exchange contribution

 Linear response parameters
   LEPSILON=     F    determine dielectric tensor
   LRPA    =     F    only Hartree local field effects (RPA)
   LNABLA  =     F    use nabla operator in PAW spheres
   LVEL    =     F    velocity operator in full k-point grid
   LINTERFAST=   F  fast interpolation
   KINTER  =     0    interpolate to denser k-point grid
   CSHIFT  =0.1000    complex shift for real part using Kramers Kronig
   OMEGAMAX=  -1.0    maximum frequency
   DEG_THRESHOLD= 0.2000000E-02 threshold for treating states as degnerate
   RTIME   =    0.100 relaxation time in fs

 Orbital magnetization related:
   ORBITALMAG=     F  switch on orbital magnetization
   LCHIMAG   =     F  perturbation theory with respect to B field
   DQ        =  0.001000  dq finite difference perturbation B field



--------------------------------------------------------------------------------------------------------


 conjugate gradient relaxation of ions
 charge density and potential will be updated during run
 spin polarized calculation
 Variant of blocked Davidson
 Davidson routine will perform the subspace rotation
 perform sub-space diagonalisation
    after iterative eigenvector-optimisation
 modified Broyden-mixing scheme, WC =      100.0
 initial mixing is a Kerker type mixing with AMIX =  0.4000 and BMIX =      1.0000
 Hartree-type preconditioning will be used
 using additional bands           24
 reciprocal scheme for non local part
 use partial core corrections
 calculate Harris-corrections to forces 
   (improved forces if not selfconsistent)
 use gradient corrections 
 use of overlap-Matrix (Vanderbilt PP)
 Methfessel and Paxton  Order N= 1 SIGMA  =   0.20


--------------------------------------------------------------------------------------------------------


  energy-cutoff  :      450.00
  volume of cell :       23.39
      direct lattice vectors                 reciprocal lattice vectors
     2.860000000  0.000000000  0.000000000     0.349650350  0.000000000  0.000000000
     0.000000000  2.860000000  0.000000000     0.000000000  0.349650350  0.000000000
     0.000000000  0.000000000  2.860000000     0.000000000  0.000000000  0.349650350

  length of vectors
     2.860000000  2.860000000  2.860000000     0.349650350  0.349650350  0.349650350


 
 k-points in units of 2pi/SCALE and weight: Automatic mesh                          
   0.08333333  0.08333333  0.08333333       0.009
   0.25000000  0.08333333  0.08333333       0.009
   0.41666667  0.08333333  0.08333333       0.009
  -0.41666667  0.08333333  0.08333333       0.009
  -0.25000000  0.08333333  0.08333333       0.009
  -0.08333333  0.08333333  0.08333333       0.009
   0.08333333  0.25000000  0.08333333       0.009
   0.25000000  0.25000000  0.08333333       0.009
   0.41666667  0.25000000  0.08333333       0.009
  -0.41666667  0.25000000  0.08333333       0.009
  -0.25000000  0.25000000  0.08333333       0.009
  -0.08333333  0.25000000  0.08333333       0.009
   0.08333333  0.41666667  0.08333333       0.009
   0.25000000  0.41666667  0.08333333       0.009
   0.41666667  0.41666667  0.08333333       0.009
  -0.41666667  0.41666667  0.08333333       0.009
  -0.25000000  0.41666667  0.08333333       0.009
  -0.08333333  0.41666667  0.08333333       0.009
   0.08333333 -0.41666667  0.08333333       0.009
   0.25000000 -0.41666667  0.08333333       0.009
   0.41666667 -0.41666667  0.08333333       0.009
  -0.41666667 -0.41666667  0.08333333       0.009
  -0.25000000 -0.41666667  0.08333333       0.009
  -0.08333333 -0.41666667  0.08333333       0.009
   0.08333333 -0.25000000  0.08333333       0.009
   0.25000000 -0.25000000  0.08333333       0.009
   0.41666667 -0.25000000  0.08333333       0.009
  -0.41666667 -0.25000000  0.08333333       0.009
  -0.25000000 -0.25000000  0.08333333       0.009
  -0.08333333 -0.25000000  0.08333333       0.009
   0.08333333 -0.08333333  0.08333333       0.009
   0.25000000 -0.08333333  0.08333333       0.009
   0.41666667 -0.08333333  0.08333333       0.009
  -0.41666667 -0.08333333  0.08333333       0.009
  -0.25000000 -0.08333333  0.08333333       0.009
  -0.08333333 -0.08333333  0.08333333       0.009
   0.08333333  0.08333333  0.25000000       0.009
   0.25000000  0.08333333  0.25000000       0.009
   0.41666667  0.08333333  0.25000000       0.009
  -0.41666667  0.08333333  0.25000000       0.009
  -0.25000000  0.08333333  0.25000000       0.009
  -0.08333333  0.08333333  0.25000000       0.009
   0.08333333  0.25000000  0.25000000       0.009
   0.25000000  0.25000000  0.25000000       0.009
   0.41666667  0.25000000  0.25000000       0.009
  -0.41666667  0.25000000  0.25000000       0.009
  -0.25000000  0.25000000  0.25000000       0.009
  -0.08333333  0.25000000  0.25000000       0.009
   0.08333333  0.41666667  0.25000000       0.009
   0.25000000  0.41666667  0.25000000       0.009
   0.41666667  0.41666667  0.25000000       0.009
  -0.41666667  0.41666667  0.25000000       0.009
  -0.25000000  0.41666667  0.25000000       0.009
  -0.08333333  0.41666667  0.25000000       0.009
   0.08333333 -0.41666667  0.25000000       0.009
   0.25000000 -0.41666667  0.25000000       0.009
   0.41666667 -0.41666667  0.25000000       0.009
  -0.41666667 -0.41666667  0.25000000       0.009
  -0.25000000 -0.41666667  0.25000000       0.009
  -0.08333333 -0.41666667  0.25000000       0.009
   0.08333333 -0.25000000  0.25000000       0.009
   0.25000000 -0.25000000  0.25000000       0.009
   0.41666667 -0.25000000  0.25000000       0.009
  -0.41666667 -0.25000000  0.25000000       0.009
  -0.25000000 -0.25000000  0.25000000       0.009
  -0.08333333 -0.25000000  0.25000000       0.009
   0.08333333 -0.08333333  0.25000000       0.009
   0.25000000 -0.08333333  0.25000000       0.009
   0.41666667 -0.08333333  0.25000000       0.009
  -0.41666667 -0.08333333  0.25000000       0.009
  -0.25000000 -0.08333333  0.25000000       0.009
  -0.08333333 -0.08333333  0.25000000       0.009
   0.08333333  0.08333333  0.41666667       0.009
   0.25000000  0.08333333  0.41666667       0.009
   0.41666667  0.08333333  0.41666667       0.009
  -0.41666667  0.08333333  0.41666667       0.009
  -0.25000000  0.08333333  0.41666667       0.009
  -0.08333333  0.08333333  0.41666667       0.009
   0.08333333  0.25000000  0.41666667       0.009
   0.25000000  0.25000000  0.41666667       0.009
   0.41666667  0.25000000  0.41666667       0.009
  -0.41666667  0.25000000  0.41666667       0.009
  -0.25000000  0.25000000  0.41666667       0.009
  -0.08333333  0.25000000  0.41666667       0.009
   0.08333333  0.41666667  0.41666667       0.009
   0.25000000  0.41666667  0.41666667       0.009
   0.41666667  0.41666667  0.41666667       0.009
  -0.41666667  0.41666667  0.41666667       0.009
  -0.25000000  0.41666667  0.41666667       0.009
  -0.08333333  0.41666667  0.41666667       0.009
   0.08333333 -0.41666667  0.41666667       0.009
   0.25000000 -0.41666667  0.41666667       0.009
   0.41666667 -0.41666667  0.41666667       0.009
  -0.41666667 -0.41666667  0.41666667       0.009
  -0.25000000 -0.41666667  0.41666667       0.009
  -0.08333333 -0.41666667  0.41666667       0.009
   0.08333333 -0.25000000  0.41666667       0.009
   0.25000000 -0.25000000  0.41666667       0.009
   0.41666667 -0.25000000  0.41666667       0.009
  -0.41666667 -0.25000000  0.41666667       0.009
  -0.25000000 -0.25000000  0.41666667       0.009
  -0.08333333 -0.25000000  0.41666667       0.009
   0.08333333 -0.08333333  0.41666667       0.009
   0.25000000 -0.08333333  0.41666667       0.009
   0.41666667 -0.08333333  0.41666667       0.009
  -0.41666667 -0.08333333  0.41666667       0.009
  -0.25000000 -0.08333333  0.41666667       0.009
  -0.08333333 -0.08333333  0.41666667       0.009
 
 k-points in reciprocal lattice and weights: Automatic mesh                          
   0.08333333  0.08333333  0.08333333       0.009
   0.25000000  0.08333333  0.08333333       0.009
   0.41666667  0.08333333  0.08333333       0.009
  -0.41666667  0.08333333  0.08333333       0.009
  -0.25000000  0.08333333  0.08333333       0.009
  -0.08333333  0.08333333  0.08333333       0.009
   0.08333333  0.25000000  0.08333333       0.009
   0.25000000  0.25000000  0.08333333       0.009
   0.41666667  0.25000000  0.08333333       0.009
  -0.41666667  0.25000000  0.08333333       0.009
  -0.25000000  0.25000000  0.08333333       0.009
  -0.08333333  0.25000000  0.08333333       0.009
   0.08333333  0.41666667  0.08333333       0.009
   0.25000000  0.41666667  0.08333333       0.009
   0.41666667  0.41666667  0.08333333       0.009
  -0.41666667  0.41666667  0.08333333       0.009
  -0.25000000  0.41666667  0.08333333       0.009
  -0.08333333  0.41666667  0.08333333       0.009
   0.08333333 -0.41666667  0.08333333       0.009
   0.25000000 -0.41666667  0.08333333       0.009
   0.41666667 -0.41666667  0.08333333       0.009
  -0.41666667 -0.41666667  0.08333333       0.009
  -0.25000000 -0.41666667  0.08333333       0.009
  -0.08333333 -0.41666667  0.08333333       0.009
   0.08333333 -0.25000000  0.08333333       0.009
   0.25000000 -0.25000000  0.08333333       0.009
   0.41666667 -0.25000000  0.08333333       0.009
  -0.41666667 -0.25000000  0.08333333       0.009
  -0.25000000 -0.25000000  0.08333333       0.009
  -0.08333333 -0.25000000  0.08333333       0.009
   0.08333333 -0.08333333  0.08333333       0.009
   0.25000000 -0.08333333  0.08333333       0.009
   0.41666667 -0.08333333  0.08333333       0.009
  -0.41666667 -0.08333333  0.08333333       0.009
  -0.25000000 -0.08333333  0.08333333       0.009
  -0.08333333 -0.08333333  0.08333333       0.009
   0.08333333  0.08333333  0.25000000       0.009
   0.25000000  0.08333333  0.25000000       0.009
   0.41666667  0.08333333  0.25000000       0.009
  -0.41666667  0.08333333  0.25000000       0.009
  -0.25000000  0.08333333  0.25000000       0.009
  -0.08333333  0.08333333  0.25000000       0.009
   0.08333333  0.25000000  0.25000000       0.009
   0.25000000  0.25000000  0.25000000       0.009
   0.41666667  0.25000000  0.25000000       0.009
  -0.41666667  0.25000000  0.25000000       0.009
  -0.25000000  0.25000000  0.25000000       0.009
  -0.08333333  0.25000000  0.25000000       0.009
   0.08333333  0.41666667  0.25000000       0.009
   0.25000000  0.41666667  0.25000000       0.009
   0.41666667  0.41666667  0.25000000       0.009
  -0.41666667  0.41666667  0.25000000       0.009
  -0.25000000  0.41666667  0.25000000       0.009
  -0.08333333  0.41666667  0.25000000       0.009
   0.08333333 -0.41666667  0.25000000       0.009
   0.25000000 -0.41666667  0.25000000       0.009
   0.41666667 -0.41666667  0.25000000       0.009
  -0.41666667 -0.41666667  0.25000000       0.009
  -0.25000000 -0.41666667  0.25000000       0.009
  -0.08333333 -0.41666667  0.25000000       0.009
   0.08333333 -0.25000000  0.25000000       0.009
   0.25000000 -0.25000000  0.25000000       0.009
   0.41666667 -0.25000000  0.25000000       0.009
  -0.41666667 -0.25000000  0.25000000       0.009
  -0.25000000 -0.25000000  0.25000000       0.009
  -0.08333333 -0.25000000  0.25000000       0.009
   0.08333333 -0.08333333  0.25000000       0.009
   0.25000000 -0.08333333  0.25000000       0.009
   0.41666667 -0.08333333  0.25000000       0.009
  -0.41666667 -0.08333333  0.25000000       0.009
  -0.25000000 -0.08333333  0.25000000       0.009
  -0.08333333 -0.08333333  0.25000000       0.009
   0.08333333  0.08333333  0.41666667       0.009
   0.25000000  0.08333333  0.41666667       0.009
   0.41666667  0.08333333  0.41666667       0.009
  -0.41666667  0.08333333  0.41666667       0.009
  -0.25000000  0.08333333  0.41666667       0.009
  -0.08333333  0.08333333  0.41666667       0.009
   0.08333333  0.25000000  0.41666667       0.009
   0.25000000  0.25000000  0.41666667       0.009
   0.41666667  0.25000000  0.41666667       0.009
  -0.41666667  0.25000000  0.41666667       0.009
  -0.25000000  0.25000000  0.41666667       0.009
  -0.08333333  0.25000000  0.41666667       0.009
   0.08333333  0.41666667  0.41666667       0.009
   0.25000000  0.41666667  0.41666667       0.009
   0.41666667  0.41666667  0.41666667       0.009
  -0.41666667  0.41666667  0.41666667       0.009
  -0.25000000  0.41666667  0.41666667       0.009
  -0.08333333  0.41666667  0.41666667       0.009
   0.08333333 -0.41666667  0.41666667       0.009
   0.25000000 -0.41666667  0.41666667       0.009
   0.41666667 -0.41666667  0.41666667       0.009
  -0.41666667 -0.41666667  0.41666667       0.009
  -0.25000000 -0.41666667  0.41666667       0.009
  -0.08333333 -0.41666667  0.41666667       0.009
   0.08333333 -0.25000000  0.41666667       0.009
   0.25000000 -0.25000000  0.41666667       0.009
   0.41666667 -0.25000000  0.41666667       0.009
  -0.41666667 -0.25000000  0.41666667       0.009
  -0.25000000 -0.25000000  0.41666667       0.009
  -0.08333333 -0.25000000  0.41666667       0.009
   0.08333333 -0.08333333  0.41666667       0.009
   0.25000000 -0.08333333  0.41666667       0.009
   0.41666667 -0.08333333  0.41666667       0.009
  -0.41666667 -0.08333333  0.41666667       0.009
  -0.25000000 -0.08333333  0.41666667       0.009
  -0.08333333 -0.08333333  0.41666667       0.009
 
 position of ions in fractional coordinates (direct lattice) 
   0.00000000  0.00000000  0.00000000
   0.50000000  0.50000000  0.50000000
 
 position of ions in cartesian coordinates  (Angst):
   0.00000000  0.00000000  0.00000000
   1.43000000  1.43000000  1.43000000
 


--------------------------------------------------------------------------------------------------------


 k-point  1 :   0.0833 0.0833 0.0833  plane waves:     485
 k-point  2 :   0.2500 0.0833 0.0833  plane waves:     505
 k-point  3 :   0.4167 0.0833 0.0833  plane waves:     500
 k-point  4 :  -0.4167 0.0833 0.0833  plane waves:     500
 k-point  5 :  -0.2500 0.0833 0.0833  plane waves:     505
 k-point  6 :  -0.0833 0.0833 0.0833  plane waves:     485
 k-point  7 :   0.0833 0.2500 0.0833  plane waves:     505
 k-point  8 :   0.2500 0.2500 0.0833  plane waves:     509
 k-point  9 :   0.4167 0.2500 0.0833  plane waves:     510
 k-point 10 :  -0.4167 0.2500 0.0833  plane waves:     510
 k-point 11 :  -0.2500 0.2500 0.0833  plane waves:     509
 k-point 12 :  -0.0833 0.2500 0.0833  plane waves:     505
 k-point 13 :   0.0833 0.4167 0.0833  plane waves:     500
 k-point 14 :   0.2500 0.4167 0.0833  plane waves:     510
 k-point 15 :   0.4167 0.4167 0.0833  plane waves:     512
 k-point 16 :  -0.4167 0.4167 0.0833  plane waves:     512
 k-point 17 :  -0.2500 0.4167 0.0833  plane waves:     510
 k-point 18 :  -0.0833 0.4167 0.0833  plane waves:     500
 k-point 19 :   0.0833-0.4167 0.0833  plane waves:     500
 k-point 20 :   0.2500-0.4167 0.0833  plane waves:     510
 k-point 21 :   0.4167-0.4167 0.0833  plane waves:     512
 k-point 22 :  -0.4167-0.4167 0.0833  plane waves:     512
 k-point 23 :  -0.2500-0.4167 0.0833  plane waves:     510
 k-point 24 :  -0.0833-0.4167 0.0833  plane waves:     500
 k-point 25 :   0.0833-0.2500 0.0833  plane waves:     505
 k-point 26 :   0.2500-0.2500 0.0833  plane waves:     509
 k-point 27 :   0.4167-0.2500 0.0833  plane waves:     510
 k-point 28 :  -0.4167-0.2500 0.0833  plane waves:     510
 k-point 29 :  -0.2500-0.2500 0.0833  plane waves:     509
 k-point 30 :  -0.0833-0.2500 0.0833  plane waves:     505
 k-point 31 :   0.0833-0.0833 0.0833  plane waves:     485
 k-point 32 :   0.2500-0.0833 0.0833  plane waves:     505
 k-point 33 :   0.4167-0.0833 0.0833  plane waves:     500
 k-point 34 :  -0.4167-0.0833 0.0833  plane waves:     500
 k-point 35 :  -0.2500-0.0833 0.0833  plane waves:     505
 k-point 36 :  -0.0833-0.0833 0.0833  plane waves:     485
 k-point 37 :   0.0833 0.0833 0.2500  plane waves:     505
 k-point 38 :   0.2500 0.0833 0.2500  plane waves:     509
 k-point 39 :   0.4167 0.0833 0.2500  plane waves:     510
 k-point 40 :  -0.4167 0.0833 0.2500  plane waves:     510
 k-point 41 :  -0.2500 0.0833 0.2500  plane waves:     509
 k-point 42 :  -0.0833 0.0833 0.2500  plane waves:     505
 k-point 43 :   0.0833 0.2500 0.2500  plane waves:     509
 k-point 44 :   0.2500 0.2500 0.2500  plane waves:     504
 k-point 45 :   0.4167 0.2500 0.2500  plane waves:     510
 k-point 46 :  -0.4167 0.2500 0.2500  plane waves:     510
 k-point 47 :  -0.2500 0.2500 0.2500  plane waves:     504
 k-point 48 :  -0.0833 0.2500 0.2500  plane waves:     509
 k-point 49 :   0.0833 0.4167 0.2500  plane waves:     510
 k-point 50 :   0.2500 0.4167 0.2500  plane waves:     510
 k-point 51 :   0.4167 0.4167 0.2500  plane waves:     506
 k-point 52 :  -0.4167 0.4167 0.2500  plane waves:     506
 k-point 53 :  -0.2500 0.4167 0.2500  plane waves:     510
 k-point 54 :  -0.0833 0.4167 0.2500  plane waves:     510
 k-point 55 :   0.0833-0.4167 0.2500  plane waves:     510
 k-point 56 :   0.2500-0.4167 0.2500  plane waves:     510
 k-point 57 :   0.4167-0.4167 0.2500  plane waves:     506
 k-point 58 :  -0.4167-0.4167 0.2500  plane waves:     506
 k-point 59 :  -0.2500-0.4167 0.2500  plane waves:     510
 k-point 60 :  -0.0833-0.4167 0.2500  plane waves:     510
 k-point 61 :   0.0833-0.2500 0.2500  plane waves:     509
 k-point 62 :   0.2500-0.2500 0.2500  plane waves:     504
 k-point 63 :   0.4167-0.2500 0.2500  plane waves:     510
 k-point 64 :  -0.4167-0.2500 0.2500  plane waves:     510
 k-point 65 :  -0.2500-0.2500 0.2500  plane waves:     504
 k-point 66 :  -0.0833-0.2500 0.2500  plane waves:     509
 k-point 67 :   0.0833-0.0833 0.2500  plane waves:     505
 k-point 68 :   0.2500-0.0833 0.2500  plane waves:     509
 k-point 69 :   0.4167-0.0833 0.2500  plane waves:     510
 k-point 70 :  -0.4167-0.0833 0.2500  plane waves:     510
 k-point 71 :  -0.2500-0.0833 0.2500  plane waves:     509
 k-point 72 :  -0.0833-0.0833 0.2500  plane waves:     505
 k-point 73 :   0.0833 0.0833 0.4167  plane waves:     500
 k-point 74 :   0.2500 0.0833 0.4167  plane waves:     510
 k-point 75 :   0.4167 0.0833 0.4167  plane waves:     512
 k-point 76 :  -0.4167 0.0833 0.4167  plane waves:     512
 k-point 77 :  -0.2500 0.0833 0.4167  plane waves:     510
 k-point 78 :  -0.0833 0.0833 0.4167  plane waves:     500
 k-point 79 :   0.0833 0.2500 0.4167  plane waves:     510
 k-point 80 :   0.2500 0.2500 0.4167  plane waves:     510
 k-point 81 :   0.4167 0.2500 0.4167  plane waves:     506
 k-point 82 :  -0.4167 0.2500 0.4167  plane waves:     506
 k-point 83 :  -0.2500 0.2500 0.4167  plane waves:     510
 k-point 84 :  -0.0833 0.2500 0.4167  plane waves:     510
 k-point 85 :   0.0833 0.4167 0.4167  plane waves:     512
 k-point 86 :   0.2500 0.4167 0.4167  plane waves:     506
 k-point 87 :   0.4167 0.4167 0.4167  plane waves:     504
 k-point 88 :  -0.4167 0.4167 0.4167  plane waves:     504
 k-point 89 :  -0.2500 0.4167 0.4167  plane waves:     506
 k-point 90 :  -0.0833 0.4167 0.4167  plane waves:     512
 k-point 91 :   0.0833-0.4167 0.4167  plane waves:     512
 k-point 92 :   0.2500-0.4167 0.4167  plane waves:     506
 k-point 93 :   0.4167-0.4167 0.4167  plane waves:     504
 k-point 94 :  -0.4167-0.4167 0.4167  plane waves:     504
 k-point 95 :  -0.2500-0.4167 0.4167  plane waves:     506
 k-point 96 :  -0.0833-0.4167 0.4167  plane waves:     512
 k-point 97 :   0.0833-0.2500 0.4167  plane waves:     510
 k-point 98 :   0.2500-0.2500 0.4167  plane waves:     510
 k-point 99 :   0.4167-0.2500 0.4167  plane waves:     506
 k-point ** :  -0.4167-0.2500 0.4167  plane waves:     506
 k-point ** :  -0.2500-0.2500 0.4167  plane waves:     510
 k-point ** :  -0.0833-0.2500 0.4167  plane waves:     510
 k-point ** :   0.0833-0.0833 0.4167  plane waves:     500
 k-point ** :   0.2500-0.0833 0.4167  plane waves:     510
 k-point ** :   0.4167-0.0833 0.4167  plane waves:     512
 k-point ** :  -0.4167-0.0833 0.4167  plane waves:     512
 k-point ** :  -0.2500-0.0833 0.4167  plane waves:     510
 k-point ** :  -0.0833-0.0833 0.4167  plane waves:     500

 maximum and minimum number of plane-waves per node :       512      485

 maximum number of plane-waves:       512
 maximum index in each direction: 
   IXMAX=    5   IYMAX=    5   IZMAX=    4
   IXMIN=   -5   IYMIN=   -5   IZMIN=   -5

 WARNING: aliasing errors must be expected set NGX to  22 to avoid them
 WARNING: aliasing errors must be expected set NGY to  22 to avoid them
 WARNING: aliasing errors must be expected set NGZ to  20 to avoid them
 aliasing errors are usually negligible using standard VASP settings
 and one can safely disregard these warnings

 serial   3D FFT for wavefunctions
 parallel 3D FFT for charge:
    minimum data exchange during FFTs selected (reduces bandwidth)


 total amount of memory used by VASP on root node    40506. kBytes
========================================================================

   base      :      30000. kBytes
   nonl-proj :       7979. kBytes
   fftplans  :         62. kBytes
   grid      :        413. kBytes
   one-center:         62. kBytes
   wavefun   :       1990. kBytes
 
     INWAV:  cpu time    0.0000: real time    0.0004
 Broyden mixing: mesh for mixing (old mesh)
   NGX =  9   NGY =  9   NGZ =  9
  (NGX  = 32   NGY  = 32   NGZ  = 32)
  gives a total of    729 points

 initial charge density was supplied:
 charge density of overlapping atoms calculated
 number of electron      16.0000000 magnetization       2.0000000
 keeping initial charge density in first step


--------------------------------------------------------------------------------------------------------


 Maximum index for augmentation-charges          401 (set IRDMAX)


--------------------------------------------------------------------------------------------------------


 First call to EWALD:  gamma=   0.620
 Maximum number of real-space cells 3x 3x 3
 Maximum number of reciprocal cells 3x 3x 3

 FEWALD executed in parallel
    FEWALD:  cpu time    0.0020: real time    0.0020


----------------------------------------- Iteration    1(   1)  ---------------------------------------


    POTLOK:  cpu time    0.0130: real time    0.0140
    SETDIJ:  cpu time    0.0070: real time    0.0070
     EDDAV:  cpu time    2.5116: real time    2.5197
       DOS:  cpu time    0.0020: real time    0.0020
    --------------------------------------------
      LOOP:  cpu time    2.5386: real time    2.5605

 eigenvalue-minimisations  : 13856
 total energy-change (2. order) :-0.4807363E+01  (-0.7978416E+03)
 number of electron      16.0000000 magnetization       2.0000000
 augmentation part       16.0000000 magnetization       2.0000000

 Free energy of the ion-electron system (eV)
  ---------------------------------------------------
  alpha Z        PSCENC =       118.17524546
  Ewald energy   TEWEN  =     -1172.68111701
  -Hartree energ DENC   =      -227.55063011
  -exchange      EXHF   =         0.00000000
  -V(xc)+E(xc)   XCENC  =         7.90834731
  PAW double counting   =      1109.45345578    -1124.86183816
  entropy T*S    EENTRO =        -0.00454958
  eigenvalues    EBANDS =        96.12986007
  atomic energy  EATOM  =      1188.62386280
  Solvation  Ediel_sol  =         0.00000000
  ---------------------------------------------------
  free energy    TOTEN  =        -4.80736345 eV

  energy without entropy =       -4.80281386  energy(sigma->0) =       -4.80584692


--------------------------------------------------------------------------------------------------------




----------------------------------------- Iteration    1(   2)  ---------------------------------------


     EDDAV:  cpu time    4.3163: real time    4.3296
       DOS:  cpu time    0.0030: real time    0.0020
    --------------------------------------------
      LOOP:  cpu time    4.3203: real time    4.3567

 eigenvalue-minimisations  : 19296
 total energy-change (2. order) :-0.1367028E+02  (-0.1342960E+02)
 number of electron      16.0000000 magnetization       2.0000000
 augmentation part       16.0000000 magnetization       2.0000000

 Free energy of the ion-electron system (eV)
  ---------------------------------------------------
  alpha Z        PSCENC =       118.17524546
  Ewald energy   TEWEN  =     -1172.68111701
  -Hartree energ DENC   =      -227.55063011
  -exchange      EXHF   =         0.00000000
  -V(xc)+E(xc)   XCENC  =         7.90834731
  PAW double counting   =      1109.45345578    -1124.86183816
  entropy T*S    EENTRO =        -0.01457323
  eigenvalues    EBANDS =        82.46960735
  atomic energy  EATOM  =      1188.62386280
  Solvation  Ediel_sol  =         0.00000000
  ---------------------------------------------------
  free energy    TOTEN  =       -18.47763980 eV

  energy without entropy =      -18.46306658  energy(sigma->0) =      -18.47278206


--------------------------------------------------------------------------------------------------------




----------------------------------------- Iteration    1(   3)  ---------------------------------------


     EDDAV:  cpu time    2.8466: real time    2.8578
       DOS:  cpu time    0.0020: real time    0.0020
    --------------------------------------------
      LOOP:  cpu time    2.8486: real time    2.8725

 eigenvalue-minimisations  : 14784
 total energy-change (2. order) :-0.1516918E-01  (-0.1516060E-01)
 number of electron      16.0000000 magnetization       2.0000000
 augmentation part       16.0000000 magnetization       2.0000000

 Free energy of the ion-electron system (eV)
  ---------------------------------------------------
  alpha Z        PSCENC =       118.17524546
  Ewald energy   TEWEN  =     -1172.68111701
  -Hartree energ DENC   =      -227.55063011
  -exchange      EXHF   =         0.00000000
  -V(xc)+E(xc)   XCENC  =         7.90834731
  PAW double counting   =      1109.45345578    -1124.86183816
  entropy T*S    EENTRO =        -0.01455812
  eigenvalues    EBANDS =        82.45442306
  atomic energy  EATOM  =      1188.62386280
  Solvation  Ediel_sol  =         0.00000000
  ---------------------------------------------------
  free energy    TOTEN  =       -18.49280899 eV

  energy without entropy =      -18.47825087  energy(sigma->0) =      -18.48795628


--------------------------------------------------------------------------------------------------------




----------------------------------------- Iteration    1(   4)  ---------------------------------------


     EDDAV:  cpu time    6.4180: real time    6.4611
       DOS:  cpu time    0.0020: real time    0.0020
    --------------------------------------------
      LOOP:  cpu time    6.4220: real time    6.4762

 eigenvalue-minimisations  : 23808
 total energy-change (2. order) :-0.1244065E-04  (-0.1244102E-04)
 number of electron      16.0000000 magnetization       2.0000000
 augmentation part       16.0000000 magnetization       2.0000000

 Free energy of the ion-electron system (eV)
  ---------------------------------------------------
  alpha Z        PSCENC =       118.17524546
  Ewald energy   TEWEN  =     -1172.68111701
  -Hartree energ DENC   =      -227.55063011
  -exchange      EXHF   =         0.00000000
  -V(xc)+E(xc)   XCENC  =         7.90834731
  PAW double counting   =      1109.45345578    -1124.86183816
  entropy T*S    EENTRO =        -0.01455804
  eigenvalues    EBANDS =        82.45441054
  atomic energy  EATOM  =      1188.62386280
  Solvation  Ediel_sol  =         0.00000000
  ---------------------------------------------------
  free energy    TOTEN  =       -18.49282143 eV

  energy without entropy =      -18.47826339  energy(sigma->0) =      -18.48796875


--------------------------------------------------------------------------------------------------------




----------------------------------------- Iteration    1(   5)  ---------------------------------------


     EDDAV:  cpu time    3.0275: real time    3.0364
       DOS:  cpu time    0.0020: real time    0.0021
    CHARGE:  cpu time    0.0160: real time    0.0157
    MIXING:  cpu time    0.0000: real time    0.0004
    --------------------------------------------
      LOOP:  cpu time    3.0475: real time    3.0671

 eigenvalue-minimisations  : 15136
 total energy-change (2. order) :-0.1111857E-09  (-0.6625768E-10)
 number of electron      16.0000068 magnetization       2.4733697
 augmentation part        7.1374995 magnetization       1.8110420

 Broyden mixing:
  rms(total) = 0.15789E+01    rms(broyden)= 0.15782E+01
  rms(prec ) = 0.37552E+01
  weight for this iteration     100.00

 Free energy of the ion-electron system (eV)
  ---------------------------------------------------
  alpha Z        PSCENC =       118.17524546
  Ewald energy   TEWEN  =     -1172.68111701
  -Hartree energ DENC   =      -227.55063011
  -exchange      EXHF   =         0.00000000
  -V(xc)+E(xc)   XCENC  =         7.90834731
  PAW double counting   =      1109.45345578    -1124.86183816
  entropy T*S    EENTRO =        -0.01455804
  eigenvalues    EBANDS =        82.45441054
  atomic energy  EATOM  =      1188.62386280
  Solvation  Ediel_sol  =         0.00000000
  ---------------------------------------------------
  free energy    TOTEN  =       -18.49282143 eV

  energy without entropy =      -18.47826339  energy(sigma->0) =      -18.48796875


--------------------------------------------------------------------------------------------------------




----------------------------------------- Iteration    1(   6)  ---------------------------------------


    POTLOK:  cpu time    0.0040: real time    0.0037
    SETDIJ:  cpu time    0.0070: real time    0.0071
     EDDAV:  cpu time    4.3463: real time    4.3611
       DOS:  cpu time    0.0020: real time    0.0020
    CHARGE:  cpu time    0.0160: real time    0.0166
    MIXING:  cpu time    0.0010: real time    0.0003
    --------------------------------------------
      LOOP:  cpu time    4.3773: real time    4.4035

 eigenvalue-minimisations  : 18688
 total energy-change (2. order) : 0.2071661E+01  (-0.3340047E+01)
 number of electron      16.0000088 magnetization       3.5317298
 augmentation part        8.6520167 magnetization       2.8652428

 Broyden mixing:
  rms(total) = 0.90309E+00    rms(broyden)= 0.90255E+00
  rms(prec ) = 0.11965E+01
  weight for this iteration     100.00

 eigenvalues of (default mixing * dielectric matrix)
  average eigenvalue GAMMA=   0.5717
  0.5717

 Free energy of the ion-electron system (eV)
  ---------------------------------------------------
  alpha Z        PSCENC =       118.17524546
  Ewald energy   TEWEN  =     -1172.68111701
  -Hartree energ DENC   =      -191.84811274
  -exchange      EXHF   =         0.00000000
  -V(xc)+E(xc)   XCENC  =         6.62752209
  PAW double counting   =      1194.23741430    -1204.64582291
  entropy T*S    EENTRO =         0.01789045
  eigenvalues    EBANDS =        45.07195759
  atomic energy  EATOM  =      1188.62386280
  Solvation  Ediel_sol  =         0.00000000
  ---------------------------------------------------
  free energy    TOTEN  =       -16.42115998 eV

  energy without entropy =      -16.43905042  energy(sigma->0) =      -16.42712346


--------------------------------------------------------------------------------------------------------




----------------------------------------- Iteration    1(   7)  ---------------------------------------


    POTLOK:  cpu time    0.0030: real time    0.0037
    SETDIJ:  cpu time    0.0080: real time    0.0071
     EDDAV:  cpu time    3.0845: real time    3.0936
       DOS:  cpu time    0.0020: real time    0.0018
    CHARGE:  cpu time    0.0160: real time    0.0158
    MIXING:  cpu time    0.0000: real time    0.0003
    --------------------------------------------
      LOOP:  cpu time    3.1135: real time    3.1354

 eigenvalue-minimisations  : 15360
 total energy-change (2. order) : 0.4239821E-01  (-0.2655024E+00)
 number of electron      16.0000082 magnetization       4.3261909
 augmentation part        8.2679266 magnetization       3.5685211

 Broyden mixing:
  rms(total) = 0.45954E+00    rms(broyden)= 0.45953E+00
  rms(prec ) = 0.51146E+00
  weight for this iteration     100.00

 eigenvalues of (default mixing * dielectric matrix)
  average eigenvalue GAMMA=   0.8914
  1.1529  0.6299

 Free energy of the ion-electron system (eV)
  ---------------------------------------------------
  alpha Z        PSCENC =       118.17524546
  Ewald energy   TEWEN  =     -1172.68111701
  -Hartree energ DENC   =      -198.21290581
  -exchange      EXHF   =         0.00000000
  -V(xc)+E(xc)   XCENC  =         7.77193803
  PAW double counting   =      1260.56000432    -1274.73629872
  entropy T*S    EENTRO =        -0.01966220
  eigenvalues    EBANDS =        54.14017137
  atomic energy  EATOM  =      1188.62386280
  Solvation  Ediel_sol  =         0.00000000
  ---------------------------------------------------
  free energy    TOTEN  =       -16.37876176 eV

  energy without entropy =      -16.35909956  energy(sigma->0) =      -16.37220769


--------------------------------------------------------------------------------------------------------




----------------------------------------- Iteration    1(   8)  ---------------------------------------


    POTLOK:  cpu time    0.0030: real time    0.0037
    SETDIJ:  cpu time    0.0070: real time    0.0071
     EDDAV:  cpu time    5.0852: real time    5.0999
       DOS:  cpu time    0.0020: real time    0.0019
    CHARGE:  cpu time    0.0170: real time    0.0165
    MIXING:  cpu time    0.0000: real time    0.0003
    --------------------------------------------
      LOOP:  cpu time    5.1152: real time    5.1419

 eigenvalue-minimisations  : 21248
 total energy-change (2. order) :-0.6659170E-01  (-0.1472347E-01)
 number of electron      16.0000082 magnetization       4.4932815
 augmentation part        8.2753411 magnetization       3.7680694

 Broyden mixing:
  rms(total) = 0.24262E+00    rms(broyden)= 0.24254E+00
  rms(prec ) = 0.28473E+00
  weight for this iteration     100.00

 eigenvalues of (default mixing * dielectric matrix)
  average eigenvalue GAMMA=   1.0024
  1.6941  0.6566  0.6566

 Free energy of the ion-electron system (eV)
  ---------------------------------------------------
  alpha Z        PSCENC =       118.17524546
  Ewald energy   TEWEN  =     -1172.68111701
  -Hartree energ DENC   =      -196.62207035
  -exchange      EXHF   =         0.00000000
  -V(xc)+E(xc)   XCENC  =         8.43870653
  PAW double counting   =      1317.21332297    -1333.04663013
  entropy T*S    EENTRO =        -0.01646529
  eigenvalues    EBANDS =        53.46979156
  atomic energy  EATOM  =      1188.62386280
  Solvation  Ediel_sol  =         0.00000000
  ---------------------------------------------------
  free energy    TOTEN  =       -16.44535346 eV

  energy without entropy =      -16.42888818  energy(sigma->0) =      -16.43986504


--------------------------------------------------------------------------------------------------------




----------------------------------------- Iteration    1(   9)  ---------------------------------------


    POTLOK:  cpu time    0.0030: real time    0.0037
    SETDIJ:  cpu time    0.0070: real time    0.0071
     EDDAV:  cpu time    4.9922: real time    5.0052
       DOS:  cpu time    0.0020: real time    0.0018
    CHARGE:  cpu time    0.0200: real time    0.0203
    MIXING:  cpu time    0.0000: real time    0.0003
    --------------------------------------------
      LOOP:  cpu time    5.0252: real time    5.0511

 eigenvalue-minimisations  : 20608
 total energy-change (2. order) : 0.1130433E-01  (-0.2806360E-02)
 number of electron      16.0000082 magnetization       4.3698827
 augmentation part        8.2963771 magnetization       3.6290863

 Broyden mixing:
  rms(total) = 0.12980E+00    rms(broyden)= 0.12969E+00
  rms(prec ) = 0.13940E+00
  weight for this iteration     100.00

 eigenvalues of (default mixing * dielectric matrix)
  average eigenvalue GAMMA=   1.4297
  2.9339  1.3821  0.7761  0.6265

 Free energy of the ion-electron system (eV)
  ---------------------------------------------------
  alpha Z        PSCENC =       118.17524546
  Ewald energy   TEWEN  =     -1172.68111701
  -Hartree energ DENC   =      -195.12949997
  -exchange      EXHF   =         0.00000000
  -V(xc)+E(xc)   XCENC  =         8.62091082
  PAW double counting   =      1369.95796117    -1387.14444358
  entropy T*S    EENTRO =        -0.01710302
  eigenvalues    EBANDS =        53.16013420
  atomic energy  EATOM  =      1188.62386280
  Solvation  Ediel_sol  =         0.00000000
  ---------------------------------------------------
  free energy    TOTEN  =       -16.43404914 eV

  energy without entropy =      -16.41694612  energy(sigma->0) =      -16.42834813


--------------------------------------------------------------------------------------------------------




----------------------------------------- Iteration    1(  10)  ---------------------------------------


    POTLOK:  cpu time    0.0040: real time    0.0037
    SETDIJ:  cpu time    0.0070: real time    0.0071
     EDDAV:  cpu time    4.8303: real time    4.8459
       DOS:  cpu time    0.0020: real time    0.0019
    CHARGE:  cpu time    0.0210: real time    0.0203
    MIXING:  cpu time    0.0000: real time    0.0003
    --------------------------------------------
      LOOP:  cpu time    4.8653: real time    4.8915

 eigenvalue-minimisations  : 20096
 total energy-change (2. order) :-0.1451611E-02  (-0.1890987E-02)
 number of electron      16.0000082 magnetization       4.3232763
 augmentation part        8.2790360 magnetization       3.5876729

 Broyden mixing:
  rms(total) = 0.79115E-01    rms(broyden)= 0.79112E-01
  rms(prec ) = 0.86805E-01
  weight for this iteration     100.00

 eigenvalues of (default mixing * dielectric matrix)
  average eigenvalue GAMMA=   1.2246
  2.3277  1.5704  0.9324  0.6464  0.6464

 Free energy of the ion-electron system (eV)
  ---------------------------------------------------
  alpha Z        PSCENC =       118.17524546
  Ewald energy   TEWEN  =     -1172.68111701
  -Hartree energ DENC   =      -193.99950436
  -exchange      EXHF   =         0.00000000
  -V(xc)+E(xc)   XCENC  =         8.44896805
  PAW double counting   =      1432.21570989    -1450.73988296
  entropy T*S    EENTRO =        -0.01734778
  eigenvalues    EBANDS =        53.53856518
  atomic energy  EATOM  =      1188.62386280
  Solvation  Ediel_sol  =         0.00000000
  ---------------------------------------------------
  free energy    TOTEN  =       -16.43550075 eV

  energy without entropy =      -16.41815296  energy(sigma->0) =      -16.42971815


--------------------------------------------------------------------------------------------------------




----------------------------------------- Iteration    1(  11)  ---------------------------------------


    POTLOK:  cpu time    0.0030: real time    0.0038
    SETDIJ:  cpu time    0.0070: real time    0.0071
     EDDAV:  cpu time    4.4683: real time    4.4834
       DOS:  cpu time    0.0020: real time    0.0019
    CHARGE:  cpu time    0.0210: real time    0.0203
    MIXING:  cpu time    0.0000: real time    0.0003
    --------------------------------------------
      LOOP:  cpu time    4.5023: real time    4.5302

 eigenvalue-minimisations  : 19072
 total energy-change (2. order) : 0.5251222E-03  (-0.5878355E-03)
 number of electron      16.0000082 magnetization       4.3405422
 augmentation part        8.2933217 magnetization       3.6105877

 Broyden mixing:
  rms(total) = 0.14641E-01    rms(broyden)= 0.14615E-01
  rms(prec ) = 0.18856E-01
  weight for this iteration     100.00

 eigenvalues of (default mixing * dielectric matrix)
  average eigenvalue GAMMA=   1.1286
  2.2635  1.2593  1.2593  0.6345  0.6774  0.6774

 Free energy of the ion-electron system (eV)
  ---------------------------------------------------
  alpha Z        PSCENC =       118.17524546
  Ewald energy   TEWEN  =     -1172.68111701
  -Hartree energ DENC   =      -194.15278892
  -exchange      EXHF   =         0.00000000
  -V(xc)+E(xc)   XCENC  =         8.40033760
  PAW double counting   =      1410.93889877    -1428.89173928
  entropy T*S    EENTRO =        -0.01762560
  eigenvalues    EBANDS =        53.16995055
  atomic energy  EATOM  =      1188.62386280
  Solvation  Ediel_sol  =         0.00000000
  ---------------------------------------------------
  free energy    TOTEN  =       -16.43497563 eV

  energy without entropy =      -16.41735003  energy(sigma->0) =      -16.42910043


--------------------------------------------------------------------------------------------------------




----------------------------------------- Iteration    1(  12)  ---------------------------------------


    POTLOK:  cpu time    0.0040: real time    0.0037
    SETDIJ:  cpu time    0.0070: real time    0.0071
     EDDAV:  cpu time    4.4643: real time    4.4781
       DOS:  cpu time    0.0020: real time    0.0019
    CHARGE:  cpu time    0.0200: real time    0.0203
    MIXING:  cpu time    0.0000: real time    0.0003
    --------------------------------------------
      LOOP:  cpu time    4.4983: real time    4.5244

 eigenvalue-minimisations  : 19232
 total energy-change (2. order) : 0.2426237E-04  (-0.2444201E-04)
 number of electron      16.0000082 magnetization       4.3332817
 augmentation part        8.2970434 magnetization       3.6034314

 Broyden mixing:
  rms(total) = 0.48921E-02    rms(broyden)= 0.48906E-02
  rms(prec ) = 0.60287E-02
  weight for this iteration     100.00

 eigenvalues of (default mixing * dielectric matrix)
  average eigenvalue GAMMA=   1.1106
  2.2796  1.4791  1.0097  1.0097  0.6862  0.6862  0.6237

 Free energy of the ion-electron system (eV)
  ---------------------------------------------------
  alpha Z        PSCENC =       118.17524546
  Ewald energy   TEWEN  =     -1172.68111701
  -Hartree energ DENC   =      -194.10791631
  -exchange      EXHF   =         0.00000000
  -V(xc)+E(xc)   XCENC  =         8.42615159
  PAW double counting   =      1410.66512977    -1428.61023426
  entropy T*S    EENTRO =        -0.01775025
  eigenvalues    EBANDS =        53.09167685
  atomic energy  EATOM  =      1188.62386280
  Solvation  Ediel_sol  =         0.00000000
  ---------------------------------------------------
  free energy    TOTEN  =       -16.43495136 eV

  energy without entropy =      -16.41720111  energy(sigma->0) =      -16.42903461


--------------------------------------------------------------------------------------------------------




----------------------------------------- Iteration    1(  13)  ---------------------------------------


    POTLOK:  cpu time    0.0030: real time    0.0037
    SETDIJ:  cpu time    0.0070: real time    0.0071
     EDDAV:  cpu time    2.5196: real time    2.5279
       DOS:  cpu time    0.0020: real time    0.0019
    --------------------------------------------
      LOOP:  cpu time    2.5326: real time    2.5538

 eigenvalue-minimisations  : 12608
 total energy-change (2. order) :-0.9448149E-07  (-0.3217284E-05)
 number of electron      16.0000082 magnetization       4.3332817
 augmentation part        8.2970434 magnetization       3.6034314

 Free energy of the ion-electron system (eV)
  ---------------------------------------------------
  alpha Z        PSCENC =       118.17524546
  Ewald energy   TEWEN  =     -1172.68111701
  -Hartree energ DENC   =      -194.09396245
  -exchange      EXHF   =         0.00000000
  -V(xc)+E(xc)   XCENC  =         8.41795128
  PAW double counting   =      1411.33995837    -1429.28647240
  entropy T*S    EENTRO =        -0.01774095
  eigenvalues    EBANDS =        53.08732344
  atomic energy  EATOM  =      1188.62386280
  Solvation  Ediel_sol  =         0.00000000
  ---------------------------------------------------
  free energy    TOTEN  =       -16.43495146 eV

  energy without entropy =      -16.41721050  energy(sigma->0) =      -16.42903781


--------------------------------------------------------------------------------------------------------




 average (electrostatic) potential at core
  the test charge radii are     1.0103
  (the norm of the test charge is              1.0000)
       1 -43.6398       2 -43.6371
 
 
 
 E-fermi :   5.4398     XC(G=0): -12.9579     alpha+bet :-13.2519


 spin component 1

 k-point     1 :       0.0833    0.0833    0.0833
  band No.  band energies     occupation 
      1      -2.2965      1.00000
      2       1.0248      1.00000
      3       1.0248      1.00000
      4       3.1608      1.00000
      5       3.1608      1.00000
      6       3.5010      1.00000
      7       4.3847      1.00000
      8       4.3847      1.00000
      9       4.9704      1.00223
     10       5.4494      0.45966
     11       5.4494      0.45966
     12      14.5620      0.00000
     13      14.5620      0.00000
     14      15.1633      0.00000
     15      22.1853      0.00000
     16      22.1853      0.00000
     17      26.9137      0.00000
     18      28.3421      0.00000
     19      28.3421      0.00000
     20      30.6727      0.00000
     21      32.7407      0.00000
     22      35.2983      0.00000
     23      35.2983      0.00000
     24      36.7764      0.00000
     25      36.7764      0.00000
     26      41.0810      0.00000
     27      41.4075      0.00000
     28      41.4075      0.00000
     29      42.7020      0.00000
     30      48.3400      0.00000
     31      50.3271      0.00000
     32      50.3271      0.00000

 k-point     2 :       0.2500    0.0833    0.0833
  band No.  band energies     occupation 
      1      -1.2556      1.00000
      2       1.4063      1.00000
      3       1.4379      1.00000
      4       3.0464      1.00000
      5       3.0990      1.00000
      6       3.9370      1.00000
      7       4.0436      1.00000
      8       4.1702      1.00000
      9       4.5827      1.00000
     10       4.7670      1.00001
     11       5.3886      0.70910
     12      10.5777     -0.00000
     13      16.2181      0.00000
     14      16.6181      0.00000
     15      22.7803      0.00000
     16      24.3619      0.00000
     17      24.7060      0.00000
     18      26.0497      0.00000
     19      29.5409      0.00000
     20      30.7569      0.00000
     21      30.8914      0.00000
     22      32.7293      0.00000
     23      35.2812      0.00000
     24      38.9408      0.00000
     25      39.5738      0.00000
     26      40.9625      0.00000
     27      43.7313      0.00000
     28      44.7054      0.00000
     29      45.4965      0.00000
     30      45.5438      0.00000
     31      46.9346      0.00000
     32      51.6413      0.00000

 k-point     3 :       0.4167    0.0833    0.0833
  band No.  band energies     occupation 
      1       0.3979      1.00000
      2       1.4951      1.00000
      3       2.1420      1.00000
      4       2.8424      1.00000
      5       3.2045      1.00000
      6       3.5451      1.00000
      7       3.7350      1.00000
      8       4.0482      1.00000
      9       4.4764      1.00000
     10       4.9757      1.00249
     11       5.1048      1.01965
     12       6.9975     -0.00000
     13      18.7327      0.00000
     14      19.1975      0.00000
     15      21.5506      0.00000
     16      22.4161      0.00000
     17      24.1759      0.00000
     18      25.7929      0.00000
     19      26.5838      0.00000
     20      28.1064      0.00000
     21      33.8130      0.00000
     22      35.9456      0.00000
     23      37.5175      0.00000
     24      37.9465      0.00000
     25      40.3815      0.00000
     26      41.1632      0.00000
     27      42.7134      0.00000
     28      44.6153      0.00000
     29      46.9309      0.00000
     30      47.9060      0.00000
     31      49.0552      0.00000
     32      51.2487      0.00000

 k-point     4 :      -0.4167    0.0833    0.0833
  band No.  band energies     occupation 
      1       0.3979      1.00000
      2       1.4951      1.00000
      3       2.1420      1.00000
      4       2.8424      1.00000
      5       3.2045      1.00000
      6       3.5451      1.00000
      7       3.7350      1.00000
      8       4.0482      1.00000
      9       4.4764      1.00000
     10       4.9757      1.00249
     11       5.1048      1.01965
     12       6.9975     -0.00000
     13      18.7327      0.00000
     14      19.1975      0.00000
     15      21.5506      0.00000
     16      22.4161      0.00000
     17      24.1759      0.00000
     18      25.7929      0.00000
     19      26.5838      0.00000
     20      28.1064      0.00000
     21      33.8130      0.00000
     22      35.9456      0.00000
     23      37.5175      0.00000
     24      37.9465      0.00000
     25      40.3815      0.00000
     26      41.1632      0.00000
     27      42.7134      0.00000
     28      44.6153      0.00000
     29      46.9309      0.00000
     30      47.9060      0.00000
     31      49.0552      0.00000
     32      51.2487      0.00000

 k-point     5 :      -0.2500    0.0833    0.0833
  band No.  band energies     occupation 
      1      -1.2556      1.00000
      2       1.4063      1.00000
      3       1.4379      1.00000
      4       3.0464      1.00000
      5       3.0990      1.00000
      6       3.9370      1.00000
      7       4.0436      1.00000
      8       4.1702      1.00000
      9       4.5827      1.00000
     10       4.7670      1.00001
     11       5.3886      0.70910
     12      10.5777     -0.00000
     13      16.2181      0.00000
     14      16.6181      0.00000
     15      22.7803      0.00000
     16      24.3619      0.00000
     17      24.7060      0.00000
     18      26.0497      0.00000
     19      29.5409      0.00000
     20      30.7569      0.00000
     21      30.8914      0.00000
     22      32.7293      0.00000
     23      35.2812      0.00000
     24      38.9408      0.00000
     25      39.5738      0.00000
     26      40.9625      0.00000
     27      43.7313      0.00000
     28      44.7054      0.00000
     29      45.4965      0.00000
     30      45.5438      0.00000
     31      46.9346      0.00000
     32      51.6413      0.00000

 k-point     6 :      -0.0833    0.0833    0.0833
  band No.  band energies     occupation 
      1      -2.2965      1.00000
      2       1.0248      1.00000
      3       1.0248      1.00000
      4       3.1608      1.00000
      5       3.1608      1.00000
      6       3.5010      1.00000
      7       4.3847      1.00000
      8       4.3847      1.00000
      9       4.9704      1.00223
     10       5.4494      0.45966
     11       5.4494      0.45966
     12      14.5620      0.00000
     13      14.5620      0.00000
     14      15.1633      0.00000
     15      22.1853      0.00000
     16      22.1853      0.00000
     17      26.9137      0.00000
     18      28.3421      0.00000
     19      28.3421      0.00000
     20      30.6727      0.00000
     21      32.7407      0.00000
     22      35.2983      0.00000
     23      35.2983      0.00000
     24      36.7764      0.00000
     25      36.7764      0.00000
     26      41.0810      0.00000
     27      41.4075      0.00000
     28      41.4075      0.00000
     29      42.7020      0.00000
     30      48.3400      0.00000
     31      50.3271      0.00000
     32      50.3271      0.00000

 k-point     7 :       0.0833    0.2500    0.0833
  band No.  band energies     occupation 
      1      -1.2556      1.00000
      2       1.4063      1.00000
      3       1.4379      1.00000
      4       3.0464      1.00000
      5       3.0990      1.00000
      6       3.9370      1.00000
      7       4.0436      1.00000
      8       4.1702      1.00000
      9       4.5827      1.00000
     10       4.7670      1.00001
     11       5.3886      0.70910
     12      10.5777     -0.00000
     13      16.2181      0.00000
     14      16.6181      0.00000
     15      22.7803      0.00000
     16      24.3619      0.00000
     17      24.7060      0.00000
     18      26.0497      0.00000
     19      29.5409      0.00000
     20      30.7569      0.00000
     21      30.8914      0.00000
     22      32.7293      0.00000
     23      35.2812      0.00000
     24      38.9408      0.00000
     25      39.5738      0.00000
     26      40.9625      0.00000
     27      43.7313      0.00000
     28      44.7054      0.00000
     29      45.4965      0.00000
     30      45.5438      0.00000
     31      46.9346      0.00000
     32      51.6413      0.00000

 k-point     8 :       0.2500    0.2500    0.0833
  band No.  band energies     occupation 
      1      -0.3755      1.00000
      2       1.5247      1.00000
      3       1.9668      1.00000
      4       2.6865      1.00000
      5       2.9874      1.00000
      6       3.3588      1.00000
      7       4.2806      1.00000
      8       4.4195      1.00000
      9       4.4860      1.00000
     10       4.6087      1.00000
     11       5.5474      0.10986
     12      10.8037     -0.00000
     13      13.2143      0.00000
     14      17.6804      0.00000
     15      21.0975      0.00000
     16      23.9282      0.00000
     17      25.2327      0.00000
     18      27.6383      0.00000
     19      28.1845      0.00000
     20      30.4516      0.00000
     21      32.0972      0.00000
     22      34.1047      0.00000
     23      36.2634      0.00000
     24      36.3558      0.00000
     25      39.1717      0.00000
     26      41.7945      0.00000
     27      42.1128      0.00000
     28      45.7878      0.00000
     29      48.1843      0.00000
     30      50.0094      0.00000
     31      50.0583      0.00000
     32      51.9987      0.00000

 k-point     9 :       0.4167    0.2500    0.0833
  band No.  band energies     occupation 
      1       0.7473      1.00000
      2       1.3780      1.00000
      3       2.5645      1.00000
      4       2.5656      1.00000
      5       2.9464      1.00000
      6       3.1198      1.00000
      7       4.1901      1.00000
      8       4.2454      1.00000
      9       4.7966      1.00003
     10       5.3679      0.78360
     11       5.4950      0.27600
     12       7.7005     -0.00000
     13      14.7248      0.00000
     14      17.5425      0.00000
     15      19.8333      0.00000
     16      22.5999      0.00000
     17      25.0411      0.00000
     18      26.5534      0.00000
     19      29.9440      0.00000
     20      30.3360      0.00000
     21      32.6410      0.00000
     22      33.7866      0.00000
     23      35.7335      0.00000
     24      37.2054      0.00000
     25      40.0774      0.00000
     26      43.4302      0.00000
     27      45.0716      0.00000
     28      47.3553      0.00000
     29      47.6793      0.00000
     30      51.1675      0.00000
     31      51.7760      0.00000
     32      52.4657      0.00000

 k-point    10 :      -0.4167    0.2500    0.0833
  band No.  band energies     occupation 
      1       0.7473      1.00000
      2       1.3780      1.00000
      3       2.5645      1.00000
      4       2.5656      1.00000
      5       2.9464      1.00000
      6       3.1198      1.00000
      7       4.1901      1.00000
      8       4.2454      1.00000
      9       4.7966      1.00003
     10       5.3679      0.78360
     11       5.4950      0.27600
     12       7.7005     -0.00000
     13      14.7248      0.00000
     14      17.5425      0.00000
     15      19.8333      0.00000
     16      22.5999      0.00000
     17      25.0411      0.00000
     18      26.5534      0.00000
     19      29.9440      0.00000
     20      30.3360      0.00000
     21      32.6410      0.00000
     22      33.7866      0.00000
     23      35.7335      0.00000
     24      37.2054      0.00000
     25      40.0774      0.00000
     26      43.4302      0.00000
     27      45.0716      0.00000
     28      47.3553      0.00000
     29      47.6793      0.00000
     30      51.1675      0.00000
     31      51.7760      0.00000
     32      52.4657      0.00000

 k-point    11 :      -0.2500    0.2500    0.0833
  band No.  band energies     occupation 
      1      -0.3755      1.00000
      2       1.5247      1.00000
      3       1.9668      1.00000
      4       2.6865      1.00000
      5       2.9874      1.00000
      6       3.3588      1.00000
      7       4.2806      1.00000
      8       4.4195      1.00000
      9       4.4860      1.00000
     10       4.6087      1.00000
     11       5.5474      0.10986
[...]
      8       6.0254     -0.00014
      9       6.5403     -0.00000
     10       7.1232     -0.00000
     11       7.6829     -0.00000
     12       8.7551     -0.00000
     13      19.4571      0.00000
     14      19.8127      0.00000
     15      22.1297      0.00000
     16      22.9732      0.00000
     17      24.6396      0.00000
     18      26.2235      0.00000
     19      26.9162      0.00000
     20      28.5246      0.00000
     21      34.1987      0.00000
     22      36.3848      0.00000
     23      37.7919      0.00000
     24      38.5703      0.00000
     25      40.8242      0.00000
     26      41.5063      0.00000
     27      43.1076      0.00000
     28      45.0599      0.00000
     29      47.6366      0.00000
     30      48.0752      0.00000
     31      49.5961      0.00000
     32      51.9678      0.00000

 k-point   104 :       0.2500   -0.0833    0.4167
  band No.  band energies     occupation 
      1       1.3454      1.00000
      2       2.6348      1.00000
      3       4.2516      1.00000
      4       4.3329      1.00000
      5       4.6674      1.00000
      6       4.6839      1.00000
      7       6.4321     -0.00000
      8       6.6326     -0.00000
      9       7.2805     -0.00000
     10       7.6005     -0.00000
     11       7.6522     -0.00000
     12       9.2282     -0.00000
     13      15.7034      0.00000
     14      18.3411      0.00000
     15      20.4172      0.00000
     16      23.0313      0.00000
     17      25.3757      0.00000
     18      26.9201      0.00000
     19      30.3089      0.00000
     20      30.6545      0.00000
     21      33.0079      0.00000
     22      34.1411      0.00000
     23      36.0881      0.00000
     24      37.6959      0.00000
     25      40.7191      0.00000
     26      43.6376      0.00000
     27      45.4779      0.00000
     28      47.8701      0.00000
     29      48.0481      0.00000
     30      51.9265      0.00000
     31      52.3655      0.00000
     32      52.6773      0.00000

 k-point   105 :       0.4167   -0.0833    0.4167
  band No.  band energies     occupation 
      1       1.9359      1.00000
      2       2.3161      1.00000
      3       3.9854      1.00000
      4       4.0785      1.00000
      5       5.2426      1.02360
      6       5.2986      0.96199
      7       6.8403     -0.00000
      8       6.9921     -0.00000
      9       7.3560     -0.00000
     10       7.6931     -0.00000
     11       8.1400     -0.00000
     12       8.9228     -0.00000
     13      13.9787      0.00000
     14      15.2648      0.00000
     15      21.8335      0.00000
     16      23.2493      0.00000
     17      25.2995      0.00000
     18      25.3227      0.00000
     19      30.0165      0.00000
     20      30.2905      0.00000
     21      33.9956      0.00000
     22      35.1338      0.00000
     23      36.3718      0.00000
     24      39.7879      0.00000
     25      41.3930      0.00000
     26      43.3390      0.00000
     27      47.6922      0.00000
     28      48.4888      0.00000
     29      50.6939      0.00000
     30      51.3443      0.00000
     31      54.0627      0.00000
     32      54.4425      0.00000

 k-point   106 :      -0.4167   -0.0833    0.4167
  band No.  band energies     occupation 
      1       1.9359      1.00000
      2       2.3161      1.00000
      3       3.9854      1.00000
      4       4.0785      1.00000
      5       5.2426      1.02360
      6       5.2986      0.96199
      7       6.8403     -0.00000
      8       6.9921     -0.00000
      9       7.3560     -0.00000
     10       7.6931     -0.00000
     11       8.1400     -0.00000
     12       8.9228     -0.00000
     13      13.9787      0.00000
     14      15.2648      0.00000
     15      21.8335      0.00000
     16      23.2493      0.00000
     17      25.2995      0.00000
     18      25.3227      0.00000
     19      30.0165      0.00000
     20      30.2905      0.00000
     21      33.9956      0.00000
     22      35.1338      0.00000
     23      36.3718      0.00000
     24      39.7879      0.00000
     25      41.3930      0.00000
     26      43.3390      0.00000
     27      47.6922      0.00000
     28      48.4888      0.00000
     29      50.6939      0.00000
     30      51.3443      0.00000
     31      54.0627      0.00000
     32      54.4425      0.00000

 k-point   107 :      -0.2500   -0.0833    0.4167
  band No.  band energies     occupation 
      1       1.3454      1.00000
      2       2.6348      1.00000
      3       4.2516      1.00000
      4       4.3329      1.00000
      5       4.6674      1.00000
      6       4.6839      1.00000
      7       6.4321     -0.00000
      8       6.6326     -0.00000
      9       7.2805     -0.00000
     10       7.6005     -0.00000
     11       7.6522     -0.00000
     12       9.2282     -0.00000
     13      15.7034      0.00000
     14      18.3411      0.00000
     15      20.4172      0.00000
     16      23.0313      0.00000
     17      25.3757      0.00000
     18      26.9201      0.00000
     19      30.3089      0.00000
     20      30.6545      0.00000
     21      33.0079      0.00000
     22      34.1411      0.00000
     23      36.0881      0.00000
     24      37.6959      0.00000
     25      40.7191      0.00000
     26      43.6376      0.00000
     27      45.4779      0.00000
     28      47.8701      0.00000
     29      48.0481      0.00000
     30      51.9265      0.00000
     31      52.3655      0.00000
     32      52.6773      0.00000

 k-point   108 :      -0.0833   -0.0833    0.4167
  band No.  band energies     occupation 
      1       0.7227      1.00000
      2       2.4882      1.00000
      3       4.1443      1.00000
      4       4.8154      1.00005
      5       5.0107      1.00485
      6       5.4054      0.64346
      7       5.9525     -0.00087
      8       6.0254     -0.00014
      9       6.5403     -0.00000
     10       7.1232     -0.00000
     11       7.6829     -0.00000
     12       8.7551     -0.00000
     13      19.4571      0.00000
     14      19.8127      0.00000
     15      22.1297      0.00000
     16      22.9732      0.00000
     17      24.6396      0.00000
     18      26.2235      0.00000
     19      26.9162      0.00000
     20      28.5246      0.00000
     21      34.1987      0.00000
     22      36.3848      0.00000
     23      37.7919      0.00000
     24      38.5703      0.00000
     25      40.8242      0.00000
     26      41.5063      0.00000
     27      43.1076      0.00000
     28      45.0599      0.00000
     29      47.6366      0.00000
     30      48.0752      0.00000
     31      49.5961      0.00000
     32      51.9678      0.00000


--------------------------------------------------------------------------------------------------------


 soft charge-density along one line, spin component           1
         0         1         2         3         4         5         6         7         8         9
 total charge-density along one line
 
 soft charge-density along one line, spin component           2
         0         1         2         3         4         5         6         7         8         9
 total charge-density along one line
 
 pseudopotential strength for first ion, spin component:           1
 -5.812  -0.000   0.000   0.000  -0.000  -6.337  -0.000   0.000
 -0.000  -5.812   0.000  -0.000  -0.000  -0.000  -6.337   0.000
  0.000   0.000  -5.987   0.000  -0.000   0.000   0.000  -6.506
  0.000  -0.000   0.000  -5.812   0.000   0.000  -0.000   0.000
 -0.000  -0.000  -0.000   0.000  -5.987  -0.000  -0.000  -0.000
 -6.337  -0.000   0.000   0.000  -0.000  -6.819  -0.000   0.000
 -0.000  -6.337   0.000  -0.000  -0.000  -0.000  -6.819   0.000
  0.000   0.000  -6.506   0.000  -0.000   0.000   0.000  -6.984
  0.000  -0.000   0.000  -6.337   0.000   0.000  -0.000   0.000
 -0.000  -0.000  -0.000   0.000  -6.506  -0.000  -0.000  -0.000
 -0.000  -0.000   0.000  -0.000   0.000  -0.000  -0.000   0.000
 -0.000  -0.000   0.000  -0.000   0.000  -0.000  -0.000   0.000
 -0.000  -0.000   0.000   0.000   0.000  -0.000  -0.000   0.000
  0.000   0.000  -0.000   0.000  -0.000   0.000   0.000  -0.000
 -0.000   0.000   0.000  -0.000   0.000  -0.000   0.000   0.000
 -0.000  -0.000   0.000   0.000   0.000  -0.000  -0.000   0.000
  0.000  -0.000  -0.000   0.000  -0.000   0.000  -0.000  -0.000
 -0.000   0.000   0.000  -0.000   0.000  -0.000   0.000   0.000
 pseudopotential strength for first ion, spin component:           2
 -4.349   0.000  -0.000  -0.000   0.000  -4.920  -0.000  -0.000
  0.000  -4.349  -0.000   0.000   0.000  -0.000  -4.920  -0.000
 -0.000  -0.000  -4.117  -0.000  -0.000  -0.000  -0.000  -4.693
 -0.000   0.000  -0.000  -4.349  -0.000  -0.000   0.000  -0.000
  0.000   0.000  -0.000  -0.000  -4.117   0.000   0.000  -0.000
 -4.920  -0.000  -0.000  -0.000   0.000  -5.447  -0.000  -0.000
 -0.000  -4.920  -0.000   0.000   0.000  -0.000  -5.447  -0.000
 -0.000  -0.000  -4.693  -0.000  -0.000  -0.000  -0.000  -5.226
 -0.000   0.000  -0.000  -4.920  -0.000  -0.000   0.000  -0.000
  0.000   0.000  -0.000  -0.000  -4.693   0.000   0.000  -0.000
 -0.000   0.000   0.000   0.000  -0.000  -0.000   0.000   0.000
 -0.000   0.000   0.000   0.000  -0.000  -0.000   0.000   0.000
  0.000  -0.000  -0.000  -0.000   0.000   0.000  -0.000  -0.000
 -0.000  -0.000  -0.000  -0.000  -0.000  -0.000  -0.000  -0.000
  0.000  -0.000  -0.000  -0.000   0.000   0.000  -0.000  -0.000
  0.000  -0.000  -0.000  -0.000  -0.000   0.000  -0.000  -0.000
 -0.000  -0.000  -0.000  -0.000  -0.000  -0.000  -0.000  -0.000
  0.000  -0.000  -0.000  -0.000   0.000   0.000  -0.000  -0.000
 total augmentation occupancy for first ion, spin component:           1
  2.231   0.000  -0.000  -0.000  -0.000  -1.184  -0.000   0.000   0.000   0.000   0.000  -0.000   0.000  -0.000   0.000   0.000
  0.000   2.231  -0.000   0.000  -0.000  -0.000  -1.184   0.000  -0.000   0.000  -0.000   0.000   0.000  -0.000   0.000   0.000
 -0.000  -0.000   3.555   0.000  -0.000   0.000   0.000  -2.234  -0.000   0.000   0.000  -0.000   0.000   0.000   0.000  -0.000
 -0.000   0.000   0.000   2.231   0.000   0.000  -0.000  -0.000  -1.184  -0.000  -0.000   0.000  -0.000  -0.000  -0.000   0.000
 -0.000  -0.000  -0.000   0.000   3.555   0.000   0.000   0.000  -0.000  -2.234  -0.000   0.000  -0.000   0.000   0.000  -0.000
 -1.184  -0.000   0.000   0.000   0.000   1.525   0.000  -0.000  -0.000  -0.000  -0.000   0.000   0.000  -0.000   0.000  -0.000
 -0.000  -1.184   0.000  -0.000   0.000   0.000   1.525  -0.000   0.000   0.000   0.000  -0.000   0.000  -0.000   0.000  -0.000
  0.000   0.000  -2.234  -0.000   0.000  -0.000  -0.000   2.177  -0.000  -0.000  -0.000   0.000   0.000  -0.000  -0.000  -0.000
  0.000  -0.000  -0.000  -1.184  -0.000  -0.000   0.000  -0.000   1.525   0.000   0.000  -0.000  -0.000  -0.000  -0.000   0.000
  0.000   0.000   0.000  -0.000  -2.234  -0.000   0.000  -0.000   0.000   2.177   0.000  -0.000  -0.000  -0.000  -0.000   0.000
  0.000  -0.000   0.000  -0.000  -0.000  -0.000   0.000  -0.000   0.000   0.000   2.335  -0.266  -0.000   0.000  -0.000   0.000
 -0.000   0.000  -0.000   0.000   0.000   0.000  -0.000   0.000  -0.000  -0.000  -0.266   0.036   0.000  -0.000   0.000  -0.000
  0.000   0.000   0.000  -0.000  -0.000   0.000   0.000   0.000  -0.000  -0.000  -0.000   0.000   0.283   0.000  -0.000  -0.024
 -0.000  -0.000   0.000  -0.000   0.000  -0.000  -0.000  -0.000  -0.000  -0.000   0.000  -0.000   0.000   0.283  -0.000  -0.000
  0.000   0.000   0.000  -0.000   0.000   0.000   0.000  -0.000  -0.000  -0.000  -0.000   0.000  -0.000  -0.000   0.283   0.000
  0.000   0.000  -0.000   0.000  -0.000  -0.000  -0.000  -0.000   0.000   0.000   0.000  -0.000  -0.024  -0.000   0.000   0.002
  0.000  -0.000  -0.000  -0.000  -0.000   0.000   0.000   0.000   0.000   0.000  -0.000   0.000  -0.000  -0.024   0.000   0.000
  0.000  -0.000  -0.000   0.000  -0.000  -0.000  -0.000  -0.000   0.000  -0.000   0.000  -0.000   0.000   0.000  -0.024  -0.000
 total augmentation occupancy for first ion, spin component:           2
  1.879  -0.000  -0.000  -0.000   0.000  -0.782   0.000  -0.000   0.000  -0.000   0.000  -0.000  -0.000  -0.000   0.000  -0.000
 -0.000   1.879  -0.000  -0.000  -0.000   0.000  -0.782  -0.000   0.000   0.000  -0.000   0.000   0.000   0.000   0.000  -0.000
 -0.000  -0.000   3.080   0.000  -0.000  -0.000   0.000  -1.375  -0.000   0.000   0.000  -0.000   0.000   0.000   0.000  -0.000
 -0.000  -0.000   0.000   1.879  -0.000   0.000   0.000  -0.000  -0.782   0.000  -0.000   0.000  -0.000   0.000  -0.000   0.000
  0.000  -0.000  -0.000  -0.000   3.080  -0.000   0.000   0.000   0.000  -1.375  -0.000   0.000  -0.000   0.000   0.000   0.000
 -0.782   0.000  -0.000   0.000  -0.000   0.081  -0.000   0.000   0.000   0.000  -0.000   0.000  -0.000  -0.000  -0.000   0.000
  0.000  -0.782   0.000   0.000   0.000  -0.000   0.081   0.000  -0.000  -0.000   0.000  -0.000  -0.000   0.000   0.000   0.000
 -0.000  -0.000  -1.375  -0.000   0.000   0.000   0.000   0.389   0.000  -0.000  -0.000   0.000  -0.000  -0.000  -0.000   0.000
  0.000   0.000  -0.000  -0.782   0.000   0.000  -0.000   0.000   0.081  -0.000   0.000  -0.000  -0.000   0.000   0.000   0.000
 -0.000   0.000   0.000   0.000  -1.375   0.000  -0.000  -0.000  -0.000   0.389   0.000  -0.000   0.000  -0.000  -0.000  -0.000
  0.000  -0.000   0.000  -0.000  -0.000  -0.000   0.000  -0.000   0.000   0.000  -0.328   0.098  -0.000   0.000  -0.000   0.000
 -0.000   0.000  -0.000   0.000   0.000   0.000  -0.000   0.000  -0.000  -0.000   0.098  -0.017   0.000  -0.000   0.000  -0.000
 -0.000   0.000   0.000  -0.000  -0.000  -0.000  -0.000  -0.000  -0.000   0.000  -0.000   0.000  -0.042  -0.000   0.000   0.006
 -0.000   0.000   0.000   0.000   0.000  -0.000   0.000  -0.000   0.000  -0.000   0.000  -0.000  -0.000  -0.042   0.000   0.000
  0.000   0.000   0.000  -0.000   0.000  -0.000   0.000  -0.000   0.000  -0.000  -0.000   0.000   0.000   0.000  -0.042  -0.000
 -0.000  -0.000  -0.000   0.000   0.000   0.000   0.000   0.000   0.000  -0.000   0.000  -0.000   0.006   0.000  -0.000  -0.001
  0.000   0.000  -0.000   0.000  -0.000   0.000  -0.000   0.000  -0.000   0.000  -0.000   0.000   0.000   0.006  -0.000  -0.000
 -0.000  -0.000  -0.000   0.000  -0.000   0.000  -0.000   0.000  -0.000   0.000   0.000  -0.000  -0.000  -0.000   0.006   0.000


------------------------ aborting loop because EDIFF is reached ----------------------------------------


    CHARGE:  cpu time    0.0160: real time    0.0166
    FORLOC:  cpu time    0.0010: real time    0.0001
    FORNL :  cpu time    0.0460: real time    0.0470
    STRESS:  cpu time    0.2480: real time    0.2480
    FORCOR:  cpu time    0.0040: real time    0.0032
    FORHAR:  cpu time    0.0010: real time    0.0005
    MIXING:  cpu time    0.0000: real time    0.0003
    OFIELD:  cpu time    0.0000: real time    0.0000

  FORCE on cell =-STRESS in cart. coord.  units (eV):
  Direction    XX          YY          ZZ          XY          YZ          ZX
  --------------------------------------------------------------------------------------
  Alpha Z   118.17525   118.17525   118.17525
  Ewald    -390.89368  -390.89368  -390.89368     0.00000     0.00000     0.00000
  Hartree    64.67965    64.67965    64.67965     0.00000    -0.00000     0.00000
  E(xc)     -79.16422   -79.16422   -79.16422    -0.00000     0.00000    -0.00000
  Local     116.14155   116.14155   116.14155    -0.00000     0.00000    -0.00000
  n-local   -52.20708   -52.20708   -52.20708     0.00000     0.00000     0.00000
  augment    77.55604    77.55604    77.55604    -0.00000     0.00000     0.00000
  Kinetic   144.72634   144.72634   144.72634    -0.00000    -0.00000    -0.00000
  Fock        0.00000     0.00000     0.00000     0.00000     0.00000     0.00000
  -------------------------------------------------------------------------------------
  Total      -0.98615    -0.98615    -0.98614    -0.00000    -0.00000     0.00000
  in kB     -67.53881   -67.53885   -67.53879    -0.00001    -0.00000     0.00000
  external pressure =      -67.54 kB  Pullay stress =        0.00 kB


 VOLUME and BASIS-vectors are now :
 -----------------------------------------------------------------------------
  energy-cutoff  :      450.00
  volume of cell :       23.39
      direct lattice vectors                 reciprocal lattice vectors
     2.860000000  0.000000000  0.000000000     0.349650350  0.000000000  0.000000000
     0.000000000  2.860000000  0.000000000     0.000000000  0.349650350  0.000000000
     0.000000000  0.000000000  2.860000000     0.000000000  0.000000000  0.349650350

  length of vectors
     2.860000000  2.860000000  2.860000000     0.349650350  0.349650350  0.349650350


 FORCES acting on ions
    electron-ion (+dipol)            ewald-force                    non-local-force                 convergence-correction
 -----------------------------------------------------------------------------------------------
   -.133E-07 -.377E-07 -.287E-07   0.219E-14 -.742E-15 -.130E-14   -.560E-08 -.170E-07 -.374E-07   -.188E-07 0.399E-07 0.543E-07
   0.438E-07 -.849E-08 0.269E-07   -.209E-14 0.143E-14 -.194E-15   0.294E-07 0.221E-07 -.159E-07   -.152E-07 -.169E-08 0.132E-07
 -----------------------------------------------------------------------------------------------
   0.305E-07 -.461E-07 -.176E-08   0.102E-15 0.685E-15 -.150E-14   0.238E-07 0.509E-08 -.534E-07   -.340E-07 0.382E-07 0.674E-07
 
 
 POSITION                                       TOTAL-FORCE (eV/Angst)
 -----------------------------------------------------------------------------------
      0.00000      0.00000      0.00000        -0.000000     -0.000000     -0.000000
      1.43000      1.43000      1.43000         0.000000      0.000000      0.000000
 -----------------------------------------------------------------------------------
    total drift:                                0.000000     -0.000000      0.000000


--------------------------------------------------------------------------------------------------------



  FREE ENERGIE OF THE ION-ELECTRON SYSTEM (eV)
  ---------------------------------------------------
  free  energy   TOTEN  =       -16.43495146 eV

  energy  without entropy=      -16.41721050  energy(sigma->0) =      -16.42903781
 


--------------------------------------------------------------------------------------------------------


    POTLOK:  cpu time    0.0100: real time    0.0108


--------------------------------------------------------------------------------------------------------




--------------------------------------------------------------------------------------------------------


  
 reached required accuracy - stopping structural energy minimisation
     LOOP+:  cpu time   53.5579: real time   53.9293
    4ORBIT:  cpu time    0.0000: real time    0.0000

 total amount of memory used by VASP on root node    40506. kBytes
========================================================================

   base      :      30000. kBytes
   nonl-proj :       7979. kBytes
   fftplans  :         62. kBytes
   grid      :        413. kBytes
   one-center:         62. kBytes
   wavefun   :       1990. kBytes
 
  
  
 General timing and accounting informations for this job:
 ========================================================
  
                  Total CPU time used (sec):       55.379
                            User time (sec):       52.480
                          System time (sec):        2.899
                         Elapsed time (sec):       56.181
  
                   Maximum memory used (kb):       83548.
                   Average memory used (kb):           0.
  
                          Minor page faults:      1085990
                          Major page faults:            0
                 Voluntary context switches:         7999
