 vasp.5.4.1 24Jun15 (build May 02 2016 14:41:14) complex                        
  
 executed on           IFC91_ompi date 2025.11.12  12:12:55
 running on   32 total cores
 distrk:  each k-point on   32 cores,    1 groups
 distr:  one band on NCORES_PER_BAND=   1 cores,   32 groups


--------------------------------------------------------------------------------------------------------


 INCAR:
 POTCAR:    PAW_PBE Fe 06Sep2000                  

 ----------------------------------------------------------------------------- 
|                                                                             |
|           W    W    AA    RRRRR   N    N  II  N    N   GGGG   !!!           |
|           W    W   A  A   R    R  NN   N  II  NN   N  G    G  !!!           |
|           W    W  A    A  R    R  N N  N  II  N N  N  G       !!!           |
|           W WW W  AAAAAA  RRRRR   N  N N  II  N  N N  G  GGG   !            |
|           WW  WW  A    A  R   R   N   NN  II  N   NN  G    G                |
|           W    W  A    A  R    R  N    N  II  N    N   GGGG   !!!           |
|                                                                             |
|      For optimal performance we recommend to set                            |
|        NCORE= 4 - approx SQRT( number of cores)                             |
|      NCORE specifies how many cores store one orbital (NPAR=cpu/NCORE).     |
|      This setting can  greatly improve the performance of VASP for DFT.     |
|      The default, NPAR=number of cores might be grossly inefficient         |
|      on modern multi-core architectures or massively parallel machines.     |
|      Do your own testing !!!!                                               |
|      Unfortunately you need to use the default for GW and RPA calculations. |
|      (for HF NCORE is supported but not extensively tested yet)             |
|                                                                             |
 ----------------------------------------------------------------------------- 

 POTCAR:    PAW_PBE Fe 06Sep2000                  
   VRHFIN =Fe:  d7 s1                                                           
   LEXCH  = PE                                                                  
   EATOM  =   594.3153 eV,   43.6809 Ry                                         
                                                                                
   TITEL  = PAW_PBE Fe 06Sep2000                                                
   LULTRA =        F    use ultrasoft PP ?                                      
   IUNSCR =        1    unscreen: 0-lin 1-nonlin 2-no                           
   RPACOR =    2.000    partial core radius                                     
   POMASS =   55.847; ZVAL   =    8.000    mass and valenz                      
   RCORE  =    2.300    outmost cutoff radius                                   
   RWIGS  =    2.460; RWIGS  =    1.302    wigner-seitz radius (au A)           
   ENMAX  =  267.882; ENMIN  =  200.911 eV                                      
   RCLOC  =    1.701    cutoff for local pot                                    
   LCOR   =        T    correct aug charges                                     
   LPAW   =        T    paw PP                                                  
   EAUG   =  511.368                                                            
   DEXC   =    0.000                                                            
   RMAX   =    2.356    core radius for proj-oper                               
   RAUG   =    1.300    factor for augmentation sphere                          
   RDEP   =    2.442    radius for radial grids                                 
   RDEPT  =    1.890    core radius for aug-charge                              
                                                                                
   Atomic configuration                                                         
    9 entries                                                                   
     n  l   j            E        occ.                                          
     1  0  0.50     -6993.8440   2.0000                                         
     2  0  0.50      -814.6047   2.0000                                         
     2  1  1.50      -693.3689   6.0000                                         
     3  0  0.50       -89.4732   2.0000                                         
     3  1  1.50       -55.6373   6.0000                                         
     3  2  2.50        -3.8151   7.0000                                         
     4  0  0.50        -4.2551   1.0000                                         
     4  1  1.50        -3.4015   0.0000                                         
     4  3  2.50        -1.3606   0.0000                                         
   Description                                                                  
     l       E           TYP  RCUT    TYP  RCUT                                 
     2     -3.8151135     23  2.300                                             
     2     -5.1756961     23  2.300                                             
     0     -4.2550963     23  2.300                                             
     0      7.2035603     23  2.300                                             
     1     -2.7211652     23  2.300                                             
     1     18.4316424     23  2.300                                             
  local pseudopotential read in
  partial core-charges read in
  partial kinetic energy density read in
  atomic valenz-charges read in
  non local Contribution for L=           2  read in
    real space projection operators read in
  non local Contribution for L=           2  read in
    real space projection operators read in
  non local Contribution for L=           0  read in
    real space projection operators read in
  non local Contribution for L=           0  read in
    real space projection operators read in
  non local Contribution for L=           1  read in
    real space projection operators read in
  non local Contribution for L=           1  read in
    real space projection operators read in
    PAW grid and wavefunctions read in
 
   number of l-projection  operators is LMAX  =           6
   number of lm-projection operators is LMMAX =          18
 
  PAW_PBE Fe 06Sep2000                  :
 energy of atom  1       EATOM= -594.3153
 kinetic energy error for atom=    0.0088 (will be added to EATOM!!)
 
 
 POSCAR: BCC Fe                                  
  positions in cartesian coordinates
  No initial velocities read in
 exchange correlation table for  LEXCH =        8
   RHO(1)=    0.500       N(1)  =     2000
   RHO(2)=  100.500       N(2)  =     4000
 


--------------------------------------------------------------------------------------------------------


 ion  position               nearest neighbor table
   1  0.000  0.000  0.000-   2 2.48   2 2.48   2 2.48   2 2.48   2 2.48   2 2.48   2 2.48   2 2.48

   2  0.500  0.500  0.500-   1 2.48   1 2.48   1 2.48   1 2.48   1 2.48   1 2.48   1 2.48   1 2.48

 

IMPORTANT INFORMATION: All symmetrisations will be switched off!
NOSYMM: (Re-)initialisation of all symmetry stuff for point group C_1.

 
 
 KPOINTS: Automatic mesh                          

Automatic generation of k-mesh.
Space group operators:
 irot       det(A)        alpha          n_x          n_y          n_z        tau_x        tau_y        tau_z
    1     1.000000     0.000001     1.000000     0.000000     0.000000     0.000000     0.000000     0.000000
 
 Subroutine IBZKPT returns following result:
 ===========================================
 
 Found    108 irreducible k-points:
 
 Following reciprocal coordinates:
            Coordinates               Weight
  0.083333  0.083333  0.083333      2.000000
  0.250000  0.083333  0.083333      2.000000
  0.416667  0.083333  0.083333      2.000000
 -0.416667  0.083333  0.083333      2.000000
 -0.250000  0.083333  0.083333      2.000000
 -0.083333  0.083333  0.083333      2.000000
  0.083333  0.250000  0.083333      2.000000
  0.250000  0.250000  0.083333      2.000000
  0.416667  0.250000  0.083333      2.000000
 -0.416667  0.250000  0.083333      2.000000
 -0.250000  0.250000  0.083333      2.000000
 -0.083333  0.250000  0.083333      2.000000
  0.083333  0.416667  0.083333      2.000000
  0.250000  0.416667  0.083333      2.000000
  0.416667  0.416667  0.083333      2.000000
 -0.416667  0.416667  0.083333      2.000000
 -0.250000  0.416667  0.083333      2.000000
 -0.083333  0.416667  0.083333      2.000000
  0.083333 -0.416667  0.083333      2.000000
  0.250000 -0.416667  0.083333      2.000000
  0.416667 -0.416667  0.083333      2.000000
 -0.416667 -0.416667  0.083333      2.000000
 -0.250000 -0.416667  0.083333      2.000000
 -0.083333 -0.416667  0.083333      2.000000
  0.083333 -0.250000  0.083333      2.000000
  0.250000 -0.250000  0.083333      2.000000
  0.416667 -0.250000  0.083333      2.000000
 -0.416667 -0.250000  0.083333      2.000000
 -0.250000 -0.250000  0.083333      2.000000
 -0.083333 -0.250000  0.083333      2.000000
  0.083333 -0.083333  0.083333      2.000000
  0.250000 -0.083333  0.083333      2.000000
  0.416667 -0.083333  0.083333      2.000000
 -0.416667 -0.083333  0.083333      2.000000
 -0.250000 -0.083333  0.083333      2.000000
 -0.083333 -0.083333  0.083333      2.000000
  0.083333  0.083333  0.250000      2.000000
  0.250000  0.083333  0.250000      2.000000
  0.416667  0.083333  0.250000      2.000000
 -0.416667  0.083333  0.250000      2.000000
 -0.250000  0.083333  0.250000      2.000000
 -0.083333  0.083333  0.250000      2.000000
  0.083333  0.250000  0.250000      2.000000
  0.250000  0.250000  0.250000      2.000000
  0.416667  0.250000  0.250000      2.000000
 -0.416667  0.250000  0.250000      2.000000
 -0.250000  0.250000  0.250000      2.000000
 -0.083333  0.250000  0.250000      2.000000
  0.083333  0.416667  0.250000      2.000000
  0.250000  0.416667  0.250000      2.000000
  0.416667  0.416667  0.250000      2.000000
 -0.416667  0.416667  0.250000      2.000000
 -0.250000  0.416667  0.250000      2.000000
 -0.083333  0.416667  0.250000      2.000000
  0.083333 -0.416667  0.250000      2.000000
  0.250000 -0.416667  0.250000      2.000000
  0.416667 -0.416667  0.250000      2.000000
 -0.416667 -0.416667  0.250000      2.000000
 -0.250000 -0.416667  0.250000      2.000000
 -0.083333 -0.416667  0.250000      2.000000
  0.083333 -0.250000  0.250000      2.000000
  0.250000 -0.250000  0.250000      2.000000
  0.416667 -0.250000  0.250000      2.000000
 -0.416667 -0.250000  0.250000      2.000000
 -0.250000 -0.250000  0.250000      2.000000
 -0.083333 -0.250000  0.250000      2.000000
  0.083333 -0.083333  0.250000      2.000000
  0.250000 -0.083333  0.250000      2.000000
  0.416667 -0.083333  0.250000      2.000000
 -0.416667 -0.083333  0.250000      2.000000
 -0.250000 -0.083333  0.250000      2.000000
 -0.083333 -0.083333  0.250000      2.000000
  0.083333  0.083333  0.416667      2.000000
  0.250000  0.083333  0.416667      2.000000
  0.416667  0.083333  0.416667      2.000000
 -0.416667  0.083333  0.416667      2.000000
 -0.250000  0.083333  0.416667      2.000000
 -0.083333  0.083333  0.416667      2.000000
  0.083333  0.250000  0.416667      2.000000
  0.250000  0.250000  0.416667      2.000000
  0.416667  0.250000  0.416667      2.000000
 -0.416667  0.250000  0.416667      2.000000
 -0.250000  0.250000  0.416667      2.000000
 -0.083333  0.250000  0.416667      2.000000
  0.083333  0.416667  0.416667      2.000000
  0.250000  0.416667  0.416667      2.000000
  0.416667  0.416667  0.416667      2.000000
 -0.416667  0.416667  0.416667      2.000000
 -0.250000  0.416667  0.416667      2.000000
 -0.083333  0.416667  0.416667      2.000000
  0.083333 -0.416667  0.416667      2.000000
  0.250000 -0.416667  0.416667      2.000000
  0.416667 -0.416667  0.416667      2.000000
 -0.416667 -0.416667  0.416667      2.000000
 -0.250000 -0.416667  0.416667      2.000000
 -0.083333 -0.416667  0.416667      2.000000
  0.083333 -0.250000  0.416667      2.000000
  0.250000 -0.250000  0.416667      2.000000
  0.416667 -0.250000  0.416667      2.000000
 -0.416667 -0.250000  0.416667      2.000000
 -0.250000 -0.250000  0.416667      2.000000
 -0.083333 -0.250000  0.416667      2.000000
  0.083333 -0.083333  0.416667      2.000000
  0.250000 -0.083333  0.416667      2.000000
  0.416667 -0.083333  0.416667      2.000000
 -0.416667 -0.083333  0.416667      2.000000
 -0.250000 -0.083333  0.416667      2.000000
 -0.083333 -0.083333  0.416667      2.000000
 
 Following cartesian coordinates:
            Coordinates               Weight
  0.083333  0.083333  0.083333      2.000000
  0.250000  0.083333  0.083333      2.000000
  0.416667  0.083333  0.083333      2.000000
 -0.416667  0.083333  0.083333      2.000000
 -0.250000  0.083333  0.083333      2.000000
 -0.083333  0.083333  0.083333      2.000000
  0.083333  0.250000  0.083333      2.000000
  0.250000  0.250000  0.083333      2.000000
  0.416667  0.250000  0.083333      2.000000
 -0.416667  0.250000  0.083333      2.000000
 -0.250000  0.250000  0.083333      2.000000
 -0.083333  0.250000  0.083333      2.000000
  0.083333  0.416667  0.083333      2.000000
  0.250000  0.416667  0.083333      2.000000
  0.416667  0.416667  0.083333      2.000000
 -0.416667  0.416667  0.083333      2.000000
 -0.250000  0.416667  0.083333      2.000000
 -0.083333  0.416667  0.083333      2.000000
  0.083333 -0.416667  0.083333      2.000000
  0.250000 -0.416667  0.083333      2.000000
  0.416667 -0.416667  0.083333      2.000000
 -0.416667 -0.416667  0.083333      2.000000
 -0.250000 -0.416667  0.083333      2.000000
 -0.083333 -0.416667  0.083333      2.000000
  0.083333 -0.250000  0.083333      2.000000
  0.250000 -0.250000  0.083333      2.000000
  0.416667 -0.250000  0.083333      2.000000
 -0.416667 -0.250000  0.083333      2.000000
 -0.250000 -0.250000  0.083333      2.000000
 -0.083333 -0.250000  0.083333      2.000000
  0.083333 -0.083333  0.083333      2.000000
  0.250000 -0.083333  0.083333      2.000000
  0.416667 -0.083333  0.083333      2.000000
 -0.416667 -0.083333  0.083333      2.000000
 -0.250000 -0.083333  0.083333      2.000000
 -0.083333 -0.083333  0.083333      2.000000
  0.083333  0.083333  0.250000      2.000000
  0.250000  0.083333  0.250000      2.000000
  0.416667  0.083333  0.250000      2.000000
 -0.416667  0.083333  0.250000      2.000000
 -0.250000  0.083333  0.250000      2.000000
 -0.083333  0.083333  0.250000      2.000000
  0.083333  0.250000  0.250000      2.000000
  0.250000  0.250000  0.250000      2.000000
  0.416667  0.250000  0.250000      2.000000
 -0.416667  0.250000  0.250000      2.000000
 -0.250000  0.250000  0.250000      2.000000
 -0.083333  0.250000  0.250000      2.000000
  0.083333  0.416667  0.250000      2.000000
  0.250000  0.416667  0.250000      2.000000
  0.416667  0.416667  0.250000      2.000000
 -0.416667  0.416667  0.250000      2.000000
 -0.250000  0.416667  0.250000      2.000000
 -0.083333  0.416667  0.250000      2.000000
  0.083333 -0.416667  0.250000      2.000000
  0.250000 -0.416667  0.250000      2.000000
  0.416667 -0.416667  0.250000      2.000000
 -0.416667 -0.416667  0.250000      2.000000
 -0.250000 -0.416667  0.250000      2.000000
 -0.083333 -0.416667  0.250000      2.000000
  0.083333 -0.250000  0.250000      2.000000
  0.250000 -0.250000  0.250000      2.000000
  0.416667 -0.250000  0.250000      2.000000
 -0.416667 -0.250000  0.250000      2.000000
 -0.250000 -0.250000  0.250000      2.000000
 -0.083333 -0.250000  0.250000      2.000000
  0.083333 -0.083333  0.250000      2.000000
  0.250000 -0.083333  0.250000      2.000000
  0.416667 -0.083333  0.250000      2.000000
 -0.416667 -0.083333  0.250000      2.000000
 -0.250000 -0.083333  0.250000      2.000000
 -0.083333 -0.083333  0.250000      2.000000
  0.083333  0.083333  0.416667      2.000000
  0.250000  0.083333  0.416667      2.000000
  0.416667  0.083333  0.416667      2.000000
 -0.416667  0.083333  0.416667      2.000000
 -0.250000  0.083333  0.416667      2.000000
 -0.083333  0.083333  0.416667      2.000000
  0.083333  0.250000  0.416667      2.000000
  0.250000  0.250000  0.416667      2.000000
  0.416667  0.250000  0.416667      2.000000
 -0.416667  0.250000  0.416667      2.000000
 -0.250000  0.250000  0.416667      2.000000
 -0.083333  0.250000  0.416667      2.000000
  0.083333  0.416667  0.416667      2.000000
  0.250000  0.416667  0.416667      2.000000
  0.416667  0.416667  0.416667      2.000000
 -0.416667  0.416667  0.416667      2.000000
 -0.250000  0.416667  0.416667      2.000000
 -0.083333  0.416667  0.416667      2.000000
  0.083333 -0.416667  0.416667      2.000000
  0.250000 -0.416667  0.416667      2.000000
  0.416667 -0.416667  0.416667      2.000000
 -0.416667 -0.416667  0.416667      2.000000
 -0.250000 -0.416667  0.416667      2.000000
 -0.083333 -0.416667  0.416667      2.000000
  0.083333 -0.250000  0.416667      2.000000
  0.250000 -0.250000  0.416667      2.000000
  0.416667 -0.250000  0.416667      2.000000
 -0.416667 -0.250000  0.416667      2.000000
 -0.250000 -0.250000  0.416667      2.000000
 -0.083333 -0.250000  0.416667      2.000000
  0.083333 -0.083333  0.416667      2.000000
  0.250000 -0.083333  0.416667      2.000000
  0.416667 -0.083333  0.416667      2.000000
 -0.416667 -0.083333  0.416667      2.000000
 -0.250000 -0.083333  0.416667      2.000000
 -0.083333 -0.083333  0.416667      2.000000
 


--------------------------------------------------------------------------------------------------------




 Dimension of arrays:
   k-points           NKPTS =    108   k-points in BZ     NKDIM =    108   number of bands    NBANDS=     32
   number of dos      NEDOS =    301   number of ions     NIONS =      2
   non local maximal  LDIM  =      6   non local SUM 2l+1 LMDIM =     18
   total plane-waves  NPLWV =   2744
   max r-space proj   IRMAX =      1   max aug-charges    IRDMAX=   4377
   dimension x,y,z NGX =    14 NGY =   14 NGZ =   14
   dimension x,y,z NGXF=    28 NGYF=   28 NGZF=   28
   support grid    NGXF=    28 NGYF=   28 NGZF=   28
   ions per type =               2
 NGX,Y,Z   is equivalent  to a cutoff of   8.14,  8.14,  8.14 a.u.
 NGXF,Y,Z  is equivalent  to a cutoff of  16.28, 16.28, 16.28 a.u.


 I would recommend the setting:
   dimension x,y,z NGX =    14 NGY =   14 NGZ =   14
 SYSTEM =  Fe Bulk                                 
 POSCAR =  BCC Fe                                  

 Startparameter for this run:
   NWRITE =      2    write-flag & timer
   PREC   = normal    normal or accurate (medium, high low for compatibility)
   ISTART =      0    job   : 0-new  1-cont  2-samecut
   ICHARG =      2    charge: 1-file 2-atom 10-const
   ISPIN  =      2    spin polarized calculation?
   LNONCOLLINEAR =      F non collinear calculations
   LSORBIT =      F    spin-orbit coupling
   INIWAV =      1    electr: 0-lowe 1-rand  2-diag
   LASPH  =      F    aspherical Exc in radial PAW
   METAGGA=      F    non-selfconsistent MetaGGA calc.

 Electronic Relaxation 1
   ENCUT  =  400.0 eV  29.40 Ry    5.42 a.u.   4.66  4.66  4.66*2*pi/ulx,y,z
   ENINI  =  400.0     initial cutoff
   ENAUG  =  511.4 eV  augmentation charge cutoff
   NELM   =     60;   NELMIN=  6; NELMDL= -5     # of ELM steps 
   EDIFF  = 0.1E-04   stopping-criterion for ELM
   LREAL  =      F    real-space projection
   NLSPLINE    = F    spline interpolate recip. space projectors
   LCOMPAT=      F    compatible to vasp.4.4
   GGA_COMPAT  = T    GGA compatible to vasp.4.4-vasp.4.6
   LMAXPAW     = -100 max onsite density
   LMAXMIX     =    2 max onsite mixed and CHGCAR
   VOSKOWN=      0    Vosko Wilk Nusair interpolation
   ROPT   =    0.00000
 Ionic relaxation
   EDIFFG = -.1E-01   stopping-criterion for IOM
   NSW    =     20    number of steps for IOM
   NBLOCK =      1;   KBLOCK =     20    inner block; outer block 
   IBRION =      2    ionic relax: 0-MD 1-quasi-New 2-CG
   NFREE  =      1    steps in history (QN), initial steepest desc. (CG)
   ISIF   =      2    stress and relaxation
   IWAVPR =     11    prediction:  0-non 1-charg 2-wave 3-comb
   ISYM   =      0    0-nonsym 1-usesym 2-fastsym
   LCORR  =      T    Harris-Foulkes like correction to forces

   POTIM  = 0.5000    time-step for ionic-motion
   TEIN   =    0.0    initial temperature
   TEBEG  =    0.0;   TEEND  =   0.0 temperature during run
   SMASS  =  -3.00    Nose mass-parameter (am)
   estimated Nose-frequenzy (Omega)   =  0.10E-29 period in steps =****** mass=  -0.187E-27a.u.
   SCALEE = 1.0000    scale energy and forces
   NPACO  =    256;   APACO  = 16.0  distance and # of slots for P.C.
   PSTRESS=    0.0 pullay stress

  Mass of Ions in am
   POMASS =  55.85
  Ionic Valenz
   ZVAL   =   8.00
  Atomic Wigner-Seitz radii
   RWIGS  =  -1.00
  virtual crystal weights 
   VCA    =   1.00
   NELECT =      16.0000    total number of electrons
   NUPDOWN=      -1.0000    fix difference up-down

 DOS related values:
   EMIN   =  10.00;   EMAX   =-10.00  energy-range for DOS
   EFERMI =   0.00
   ISMEAR =     1;   SIGMA  =   0.20  broadening in eV -4-tet -1-fermi 0-gaus

 Electronic relaxation 2 (details)
   IALGO  =     38    algorithm
   LDIAG  =      T    sub-space diagonalisation (order eigenvalues)
   LSUBROT=      F    optimize rotation matrix (better conditioning)
   TURBO    =      0    0=normal 1=particle mesh
   IRESTART =      0    0=no restart 2=restart with 2 vectors
   NREBOOT  =      0    no. of reboots
   NMIN     =      0    reboot dimension
   EREF     =   0.00    reference energy to select bands
   IMIX   =      4    mixing-type and parameters
     AMIX     =   0.40;   BMIX     =  1.00
     AMIX_MAG =   1.60;   BMIX_MAG =  1.00
     AMIN     =   0.10
     WC   =   100.;   INIMIX=   1;  MIXPRE=   1;  MAXMIX=  40

 Intra band minimization:
   WEIMIN = 0.0010     energy-eigenvalue tresh-hold
   EBREAK =  0.78E-07  absolut break condition
   DEPER  =   0.30     relativ break condition  

   TIME   =   0.40     timestep for ELM

  volume/ion in A,a.u.               =      11.70        78.93
  Fermi-wavevector in a.u.,A,eV,Ry     =   1.442388  2.725718 28.306695  2.080483
  Thomas-Fermi vector in A             =   2.560914
 
 Write flags
   LWAVE  =      F    write WAVECAR
   LCHARG =      F    write CHGCAR
   LVTOT  =      F    write LOCPOT, total local potential
   LVHAR  =      F    write LOCPOT, Hartree potential only
   LELF   =      F    write electronic localiz. function (ELF)
   LORBIT =      0    0 simple, 1 ext, 2 COOP (PROOUT)


 Dipole corrections
   LMONO  =      F    monopole corrections only (constant potential shift)
   LDIPOL =      F    correct potential (dipole corrections)
   IDIPOL =      0    1-x, 2-y, 3-z, 4-all directions 
   EPSILON=  1.0000000 bulk dielectric constant

 Exchange correlation treatment:
   GGA     =    PE    GGA type
   LEXCH   =     8    internal setting for exchange type
   VOSKOWN=      0    Vosko Wilk Nusair interpolation
   LHFCALC =     F    Hartree Fock is set to
   LHFONE  =     F    Hartree Fock one center treatment
   AEXX    =    0.0000 exact exchange contribution

 Linear response parameters
   LEPSILON=     F    determine dielectric tensor
   LRPA    =     F    only Hartree local field effects (RPA)
   LNABLA  =     F    use nabla operator in PAW spheres
   LVEL    =     F    velocity operator in full k-point grid
   LINTERFAST=   F  fast interpolation
   KINTER  =     0    interpolate to denser k-point grid
   CSHIFT  =0.1000    complex shift for real part using Kramers Kronig
   OMEGAMAX=  -1.0    maximum frequency
   DEG_THRESHOLD= 0.2000000E-02 threshold for treating states as degnerate
   RTIME   =    0.100 relaxation time in fs

 Orbital magnetization related:
   ORBITALMAG=     F  switch on orbital magnetization
   LCHIMAG   =     F  perturbation theory with respect to B field
   DQ        =  0.001000  dq finite difference perturbation B field



--------------------------------------------------------------------------------------------------------


 conjugate gradient relaxation of ions
 charge density and potential will be updated during run
 spin polarized calculation
 Variant of blocked Davidson
 Davidson routine will perform the subspace rotation
 perform sub-space diagonalisation
    after iterative eigenvector-optimisation
 modified Broyden-mixing scheme, WC =      100.0
 initial mixing is a Kerker type mixing with AMIX =  0.4000 and BMIX =      1.0000
 Hartree-type preconditioning will be used
 using additional bands           24
 reciprocal scheme for non local part
 use partial core corrections
 calculate Harris-corrections to forces 
   (improved forces if not selfconsistent)
 use gradient corrections 
 use of overlap-Matrix (Vanderbilt PP)
 Methfessel and Paxton  Order N= 1 SIGMA  =   0.20


--------------------------------------------------------------------------------------------------------


  energy-cutoff  :      400.00
  volume of cell :       23.39
      direct lattice vectors                 reciprocal lattice vectors
     2.860000000  0.000000000  0.000000000     0.349650350  0.000000000  0.000000000
     0.000000000  2.860000000  0.000000000     0.000000000  0.349650350  0.000000000
     0.000000000  0.000000000  2.860000000     0.000000000  0.000000000  0.349650350

  length of vectors
     2.860000000  2.860000000  2.860000000     0.349650350  0.349650350  0.349650350


 
 k-points in units of 2pi/SCALE and weight: Automatic mesh                          
   0.08333333  0.08333333  0.08333333       0.009
   0.25000000  0.08333333  0.08333333       0.009
   0.41666667  0.08333333  0.08333333       0.009
  -0.41666667  0.08333333  0.08333333       0.009
  -0.25000000  0.08333333  0.08333333       0.009
  -0.08333333  0.08333333  0.08333333       0.009
   0.08333333  0.25000000  0.08333333       0.009
   0.25000000  0.25000000  0.08333333       0.009
   0.41666667  0.25000000  0.08333333       0.009
  -0.41666667  0.25000000  0.08333333       0.009
  -0.25000000  0.25000000  0.08333333       0.009
  -0.08333333  0.25000000  0.08333333       0.009
   0.08333333  0.41666667  0.08333333       0.009
   0.25000000  0.41666667  0.08333333       0.009
   0.41666667  0.41666667  0.08333333       0.009
  -0.41666667  0.41666667  0.08333333       0.009
  -0.25000000  0.41666667  0.08333333       0.009
  -0.08333333  0.41666667  0.08333333       0.009
   0.08333333 -0.41666667  0.08333333       0.009
   0.25000000 -0.41666667  0.08333333       0.009
   0.41666667 -0.41666667  0.08333333       0.009
  -0.41666667 -0.41666667  0.08333333       0.009
  -0.25000000 -0.41666667  0.08333333       0.009
  -0.08333333 -0.41666667  0.08333333       0.009
   0.08333333 -0.25000000  0.08333333       0.009
   0.25000000 -0.25000000  0.08333333       0.009
   0.41666667 -0.25000000  0.08333333       0.009
  -0.41666667 -0.25000000  0.08333333       0.009
  -0.25000000 -0.25000000  0.08333333       0.009
  -0.08333333 -0.25000000  0.08333333       0.009
   0.08333333 -0.08333333  0.08333333       0.009
   0.25000000 -0.08333333  0.08333333       0.009
   0.41666667 -0.08333333  0.08333333       0.009
  -0.41666667 -0.08333333  0.08333333       0.009
  -0.25000000 -0.08333333  0.08333333       0.009
  -0.08333333 -0.08333333  0.08333333       0.009
   0.08333333  0.08333333  0.25000000       0.009
   0.25000000  0.08333333  0.25000000       0.009
   0.41666667  0.08333333  0.25000000       0.009
  -0.41666667  0.08333333  0.25000000       0.009
  -0.25000000  0.08333333  0.25000000       0.009
  -0.08333333  0.08333333  0.25000000       0.009
   0.08333333  0.25000000  0.25000000       0.009
   0.25000000  0.25000000  0.25000000       0.009
   0.41666667  0.25000000  0.25000000       0.009
  -0.41666667  0.25000000  0.25000000       0.009
  -0.25000000  0.25000000  0.25000000       0.009
  -0.08333333  0.25000000  0.25000000       0.009
   0.08333333  0.41666667  0.25000000       0.009
   0.25000000  0.41666667  0.25000000       0.009
   0.41666667  0.41666667  0.25000000       0.009
  -0.41666667  0.41666667  0.25000000       0.009
  -0.25000000  0.41666667  0.25000000       0.009
  -0.08333333  0.41666667  0.25000000       0.009
   0.08333333 -0.41666667  0.25000000       0.009
   0.25000000 -0.41666667  0.25000000       0.009
   0.41666667 -0.41666667  0.25000000       0.009
  -0.41666667 -0.41666667  0.25000000       0.009
  -0.25000000 -0.41666667  0.25000000       0.009
  -0.08333333 -0.41666667  0.25000000       0.009
   0.08333333 -0.25000000  0.25000000       0.009
   0.25000000 -0.25000000  0.25000000       0.009
   0.41666667 -0.25000000  0.25000000       0.009
  -0.41666667 -0.25000000  0.25000000       0.009
  -0.25000000 -0.25000000  0.25000000       0.009
  -0.08333333 -0.25000000  0.25000000       0.009
   0.08333333 -0.08333333  0.25000000       0.009
   0.25000000 -0.08333333  0.25000000       0.009
   0.41666667 -0.08333333  0.25000000       0.009
  -0.41666667 -0.08333333  0.25000000       0.009
  -0.25000000 -0.08333333  0.25000000       0.009
  -0.08333333 -0.08333333  0.25000000       0.009
   0.08333333  0.08333333  0.41666667       0.009
   0.25000000  0.08333333  0.41666667       0.009
   0.41666667  0.08333333  0.41666667       0.009
  -0.41666667  0.08333333  0.41666667       0.009
  -0.25000000  0.08333333  0.41666667       0.009
  -0.08333333  0.08333333  0.41666667       0.009
   0.08333333  0.25000000  0.41666667       0.009
   0.25000000  0.25000000  0.41666667       0.009
   0.41666667  0.25000000  0.41666667       0.009
  -0.41666667  0.25000000  0.41666667       0.009
  -0.25000000  0.25000000  0.41666667       0.009
  -0.08333333  0.25000000  0.41666667       0.009
   0.08333333  0.41666667  0.41666667       0.009
   0.25000000  0.41666667  0.41666667       0.009
   0.41666667  0.41666667  0.41666667       0.009
  -0.41666667  0.41666667  0.41666667       0.009
  -0.25000000  0.41666667  0.41666667       0.009
  -0.08333333  0.41666667  0.41666667       0.009
   0.08333333 -0.41666667  0.41666667       0.009
   0.25000000 -0.41666667  0.41666667       0.009
   0.41666667 -0.41666667  0.41666667       0.009
  -0.41666667 -0.41666667  0.41666667       0.009
  -0.25000000 -0.41666667  0.41666667       0.009
  -0.08333333 -0.41666667  0.41666667       0.009
   0.08333333 -0.25000000  0.41666667       0.009
   0.25000000 -0.25000000  0.41666667       0.009
   0.41666667 -0.25000000  0.41666667       0.009
  -0.41666667 -0.25000000  0.41666667       0.009
  -0.25000000 -0.25000000  0.41666667       0.009
  -0.08333333 -0.25000000  0.41666667       0.009
   0.08333333 -0.08333333  0.41666667       0.009
   0.25000000 -0.08333333  0.41666667       0.009
   0.41666667 -0.08333333  0.41666667       0.009
  -0.41666667 -0.08333333  0.41666667       0.009
  -0.25000000 -0.08333333  0.41666667       0.009
  -0.08333333 -0.08333333  0.41666667       0.009
 
 k-points in reciprocal lattice and weights: Automatic mesh                          
   0.08333333  0.08333333  0.08333333       0.009
   0.25000000  0.08333333  0.08333333       0.009
   0.41666667  0.08333333  0.08333333       0.009
  -0.41666667  0.08333333  0.08333333       0.009
  -0.25000000  0.08333333  0.08333333       0.009
  -0.08333333  0.08333333  0.08333333       0.009
   0.08333333  0.25000000  0.08333333       0.009
   0.25000000  0.25000000  0.08333333       0.009
   0.41666667  0.25000000  0.08333333       0.009
  -0.41666667  0.25000000  0.08333333       0.009
  -0.25000000  0.25000000  0.08333333       0.009
  -0.08333333  0.25000000  0.08333333       0.009
   0.08333333  0.41666667  0.08333333       0.009
   0.25000000  0.41666667  0.08333333       0.009
   0.41666667  0.41666667  0.08333333       0.009
  -0.41666667  0.41666667  0.08333333       0.009
  -0.25000000  0.41666667  0.08333333       0.009
  -0.08333333  0.41666667  0.08333333       0.009
   0.08333333 -0.41666667  0.08333333       0.009
   0.25000000 -0.41666667  0.08333333       0.009
   0.41666667 -0.41666667  0.08333333       0.009
  -0.41666667 -0.41666667  0.08333333       0.009
  -0.25000000 -0.41666667  0.08333333       0.009
  -0.08333333 -0.41666667  0.08333333       0.009
   0.08333333 -0.25000000  0.08333333       0.009
   0.25000000 -0.25000000  0.08333333       0.009
   0.41666667 -0.25000000  0.08333333       0.009
  -0.41666667 -0.25000000  0.08333333       0.009
  -0.25000000 -0.25000000  0.08333333       0.009
  -0.08333333 -0.25000000  0.08333333       0.009
   0.08333333 -0.08333333  0.08333333       0.009
   0.25000000 -0.08333333  0.08333333       0.009
   0.41666667 -0.08333333  0.08333333       0.009
  -0.41666667 -0.08333333  0.08333333       0.009
  -0.25000000 -0.08333333  0.08333333       0.009
  -0.08333333 -0.08333333  0.08333333       0.009
   0.08333333  0.08333333  0.25000000       0.009
   0.25000000  0.08333333  0.25000000       0.009
   0.41666667  0.08333333  0.25000000       0.009
  -0.41666667  0.08333333  0.25000000       0.009
  -0.25000000  0.08333333  0.25000000       0.009
  -0.08333333  0.08333333  0.25000000       0.009
   0.08333333  0.25000000  0.25000000       0.009
   0.25000000  0.25000000  0.25000000       0.009
   0.41666667  0.25000000  0.25000000       0.009
  -0.41666667  0.25000000  0.25000000       0.009
  -0.25000000  0.25000000  0.25000000       0.009
  -0.08333333  0.25000000  0.25000000       0.009
   0.08333333  0.41666667  0.25000000       0.009
   0.25000000  0.41666667  0.25000000       0.009
   0.41666667  0.41666667  0.25000000       0.009
  -0.41666667  0.41666667  0.25000000       0.009
  -0.25000000  0.41666667  0.25000000       0.009
  -0.08333333  0.41666667  0.25000000       0.009
   0.08333333 -0.41666667  0.25000000       0.009
   0.25000000 -0.41666667  0.25000000       0.009
   0.41666667 -0.41666667  0.25000000       0.009
  -0.41666667 -0.41666667  0.25000000       0.009
  -0.25000000 -0.41666667  0.25000000       0.009
  -0.08333333 -0.41666667  0.25000000       0.009
   0.08333333 -0.25000000  0.25000000       0.009
   0.25000000 -0.25000000  0.25000000       0.009
   0.41666667 -0.25000000  0.25000000       0.009
  -0.41666667 -0.25000000  0.25000000       0.009
  -0.25000000 -0.25000000  0.25000000       0.009
  -0.08333333 -0.25000000  0.25000000       0.009
   0.08333333 -0.08333333  0.25000000       0.009
   0.25000000 -0.08333333  0.25000000       0.009
   0.41666667 -0.08333333  0.25000000       0.009
  -0.41666667 -0.08333333  0.25000000       0.009
  -0.25000000 -0.08333333  0.25000000       0.009
  -0.08333333 -0.08333333  0.25000000       0.009
   0.08333333  0.08333333  0.41666667       0.009
   0.25000000  0.08333333  0.41666667       0.009
   0.41666667  0.08333333  0.41666667       0.009
  -0.41666667  0.08333333  0.41666667       0.009
  -0.25000000  0.08333333  0.41666667       0.009
  -0.08333333  0.08333333  0.41666667       0.009
   0.08333333  0.25000000  0.41666667       0.009
   0.25000000  0.25000000  0.41666667       0.009
   0.41666667  0.25000000  0.41666667       0.009
  -0.41666667  0.25000000  0.41666667       0.009
  -0.25000000  0.25000000  0.41666667       0.009
  -0.08333333  0.25000000  0.41666667       0.009
   0.08333333  0.41666667  0.41666667       0.009
   0.25000000  0.41666667  0.41666667       0.009
   0.41666667  0.41666667  0.41666667       0.009
  -0.41666667  0.41666667  0.41666667       0.009
  -0.25000000  0.41666667  0.41666667       0.009
  -0.08333333  0.41666667  0.41666667       0.009
   0.08333333 -0.41666667  0.41666667       0.009
   0.25000000 -0.41666667  0.41666667       0.009
   0.41666667 -0.41666667  0.41666667       0.009
  -0.41666667 -0.41666667  0.41666667       0.009
  -0.25000000 -0.41666667  0.41666667       0.009
  -0.08333333 -0.41666667  0.41666667       0.009
   0.08333333 -0.25000000  0.41666667       0.009
   0.25000000 -0.25000000  0.41666667       0.009
   0.41666667 -0.25000000  0.41666667       0.009
  -0.41666667 -0.25000000  0.41666667       0.009
  -0.25000000 -0.25000000  0.41666667       0.009
  -0.08333333 -0.25000000  0.41666667       0.009
   0.08333333 -0.08333333  0.41666667       0.009
   0.25000000 -0.08333333  0.41666667       0.009
   0.41666667 -0.08333333  0.41666667       0.009
  -0.41666667 -0.08333333  0.41666667       0.009
  -0.25000000 -0.08333333  0.41666667       0.009
  -0.08333333 -0.08333333  0.41666667       0.009
 
 position of ions in fractional coordinates (direct lattice) 
   0.00000000  0.00000000  0.00000000
   0.50000000  0.50000000  0.50000000
 
 position of ions in cartesian coordinates  (Angst):
   0.00000000  0.00000000  0.00000000
   1.43000000  1.43000000  1.43000000
 


--------------------------------------------------------------------------------------------------------


 k-point  1 :   0.0833 0.0833 0.0833  plane waves:     437
 k-point  2 :   0.2500 0.0833 0.0833  plane waves:     431
 k-point  3 :   0.4167 0.0833 0.0833  plane waves:     427
 k-point  4 :  -0.4167 0.0833 0.0833  plane waves:     427
 k-point  5 :  -0.2500 0.0833 0.0833  plane waves:     431
 k-point  6 :  -0.0833 0.0833 0.0833  plane waves:     437
 k-point  7 :   0.0833 0.2500 0.0833  plane waves:     431
 k-point  8 :   0.2500 0.2500 0.0833  plane waves:     420
 k-point  9 :   0.4167 0.2500 0.0833  plane waves:     426
 k-point 10 :  -0.4167 0.2500 0.0833  plane waves:     426
 k-point 11 :  -0.2500 0.2500 0.0833  plane waves:     420
 k-point 12 :  -0.0833 0.2500 0.0833  plane waves:     431
 k-point 13 :   0.0833 0.4167 0.0833  plane waves:     427
 k-point 14 :   0.2500 0.4167 0.0833  plane waves:     426
 k-point 15 :   0.4167 0.4167 0.0833  plane waves:     420
 k-point 16 :  -0.4167 0.4167 0.0833  plane waves:     420
 k-point 17 :  -0.2500 0.4167 0.0833  plane waves:     426
 k-point 18 :  -0.0833 0.4167 0.0833  plane waves:     427
 k-point 19 :   0.0833-0.4167 0.0833  plane waves:     427
 k-point 20 :   0.2500-0.4167 0.0833  plane waves:     426
 k-point 21 :   0.4167-0.4167 0.0833  plane waves:     420
 k-point 22 :  -0.4167-0.4167 0.0833  plane waves:     420
 k-point 23 :  -0.2500-0.4167 0.0833  plane waves:     426
 k-point 24 :  -0.0833-0.4167 0.0833  plane waves:     427
 k-point 25 :   0.0833-0.2500 0.0833  plane waves:     431
 k-point 26 :   0.2500-0.2500 0.0833  plane waves:     420
 k-point 27 :   0.4167-0.2500 0.0833  plane waves:     426
 k-point 28 :  -0.4167-0.2500 0.0833  plane waves:     426
 k-point 29 :  -0.2500-0.2500 0.0833  plane waves:     420
 k-point 30 :  -0.0833-0.2500 0.0833  plane waves:     431
 k-point 31 :   0.0833-0.0833 0.0833  plane waves:     437
 k-point 32 :   0.2500-0.0833 0.0833  plane waves:     431
 k-point 33 :   0.4167-0.0833 0.0833  plane waves:     427
 k-point 34 :  -0.4167-0.0833 0.0833  plane waves:     427
 k-point 35 :  -0.2500-0.0833 0.0833  plane waves:     431
 k-point 36 :  -0.0833-0.0833 0.0833  plane waves:     437
 k-point 37 :   0.0833 0.0833 0.2500  plane waves:     431
 k-point 38 :   0.2500 0.0833 0.2500  plane waves:     420
 k-point 39 :   0.4167 0.0833 0.2500  plane waves:     426
 k-point 40 :  -0.4167 0.0833 0.2500  plane waves:     426
 k-point 41 :  -0.2500 0.0833 0.2500  plane waves:     420
 k-point 42 :  -0.0833 0.0833 0.2500  plane waves:     431
 k-point 43 :   0.0833 0.2500 0.2500  plane waves:     420
 k-point 44 :   0.2500 0.2500 0.2500  plane waves:     431
 k-point 45 :   0.4167 0.2500 0.2500  plane waves:     428
 k-point 46 :  -0.4167 0.2500 0.2500  plane waves:     428
 k-point 47 :  -0.2500 0.2500 0.2500  plane waves:     431
 k-point 48 :  -0.0833 0.2500 0.2500  plane waves:     420
 k-point 49 :   0.0833 0.4167 0.2500  plane waves:     426
 k-point 50 :   0.2500 0.4167 0.2500  plane waves:     428
 k-point 51 :   0.4167 0.4167 0.2500  plane waves:     426
 k-point 52 :  -0.4167 0.4167 0.2500  plane waves:     426
 k-point 53 :  -0.2500 0.4167 0.2500  plane waves:     428
 k-point 54 :  -0.0833 0.4167 0.2500  plane waves:     426
 k-point 55 :   0.0833-0.4167 0.2500  plane waves:     426
 k-point 56 :   0.2500-0.4167 0.2500  plane waves:     428
 k-point 57 :   0.4167-0.4167 0.2500  plane waves:     426
 k-point 58 :  -0.4167-0.4167 0.2500  plane waves:     426
 k-point 59 :  -0.2500-0.4167 0.2500  plane waves:     428
 k-point 60 :  -0.0833-0.4167 0.2500  plane waves:     426
 k-point 61 :   0.0833-0.2500 0.2500  plane waves:     420
 k-point 62 :   0.2500-0.2500 0.2500  plane waves:     431
 k-point 63 :   0.4167-0.2500 0.2500  plane waves:     428
 k-point 64 :  -0.4167-0.2500 0.2500  plane waves:     428
 k-point 65 :  -0.2500-0.2500 0.2500  plane waves:     431
 k-point 66 :  -0.0833-0.2500 0.2500  plane waves:     420
 k-point 67 :   0.0833-0.0833 0.2500  plane waves:     431
 k-point 68 :   0.2500-0.0833 0.2500  plane waves:     420
 k-point 69 :   0.4167-0.0833 0.2500  plane waves:     426
 k-point 70 :  -0.4167-0.0833 0.2500  plane waves:     426
 k-point 71 :  -0.2500-0.0833 0.2500  plane waves:     420
 k-point 72 :  -0.0833-0.0833 0.2500  plane waves:     431
 k-point 73 :   0.0833 0.0833 0.4167  plane waves:     427
 k-point 74 :   0.2500 0.0833 0.4167  plane waves:     426
 k-point 75 :   0.4167 0.0833 0.4167  plane waves:     420
 k-point 76 :  -0.4167 0.0833 0.4167  plane waves:     420
 k-point 77 :  -0.2500 0.0833 0.4167  plane waves:     426
 k-point 78 :  -0.0833 0.0833 0.4167  plane waves:     427
 k-point 79 :   0.0833 0.2500 0.4167  plane waves:     426
 k-point 80 :   0.2500 0.2500 0.4167  plane waves:     428
 k-point 81 :   0.4167 0.2500 0.4167  plane waves:     426
 k-point 82 :  -0.4167 0.2500 0.4167  plane waves:     426
 k-point 83 :  -0.2500 0.2500 0.4167  plane waves:     428
 k-point 84 :  -0.0833 0.2500 0.4167  plane waves:     426
 k-point 85 :   0.0833 0.4167 0.4167  plane waves:     420
 k-point 86 :   0.2500 0.4167 0.4167  plane waves:     426
 k-point 87 :   0.4167 0.4167 0.4167  plane waves:     432
 k-point 88 :  -0.4167 0.4167 0.4167  plane waves:     432
 k-point 89 :  -0.2500 0.4167 0.4167  plane waves:     426
 k-point 90 :  -0.0833 0.4167 0.4167  plane waves:     420
 k-point 91 :   0.0833-0.4167 0.4167  plane waves:     420
 k-point 92 :   0.2500-0.4167 0.4167  plane waves:     426
 k-point 93 :   0.4167-0.4167 0.4167  plane waves:     432
 k-point 94 :  -0.4167-0.4167 0.4167  plane waves:     432
 k-point 95 :  -0.2500-0.4167 0.4167  plane waves:     426
 k-point 96 :  -0.0833-0.4167 0.4167  plane waves:     420
 k-point 97 :   0.0833-0.2500 0.4167  plane waves:     426
 k-point 98 :   0.2500-0.2500 0.4167  plane waves:     428
 k-point 99 :   0.4167-0.2500 0.4167  plane waves:     426
 k-point ** :  -0.4167-0.2500 0.4167  plane waves:     426
 k-point ** :  -0.2500-0.2500 0.4167  plane waves:     428
 k-point ** :  -0.0833-0.2500 0.4167  plane waves:     426
 k-point ** :   0.0833-0.0833 0.4167  plane waves:     427
 k-point ** :   0.2500-0.0833 0.4167  plane waves:     426
 k-point ** :   0.4167-0.0833 0.4167  plane waves:     420
 k-point ** :  -0.4167-0.0833 0.4167  plane waves:     420
 k-point ** :  -0.2500-0.0833 0.4167  plane waves:     426
 k-point ** :  -0.0833-0.0833 0.4167  plane waves:     427

 maximum and minimum number of plane-waves per node :       437      420

 maximum number of plane-waves:       437
 maximum index in each direction: 
   IXMAX=    5   IYMAX=    5   IZMAX=    4
   IXMIN=   -5   IYMIN=   -5   IZMIN=   -5

 WARNING: aliasing errors must be expected set NGX to  22 to avoid them
 WARNING: aliasing errors must be expected set NGY to  22 to avoid them
 WARNING: aliasing errors must be expected set NGZ to  20 to avoid them
 aliasing errors are usually negligible using standard VASP settings
 and one can safely disregard these warnings

 serial   3D FFT for wavefunctions
 parallel 3D FFT for charge:
    minimum data exchange during FFTs selected (reduces bandwidth)


 total amount of memory used by VASP on root node    39143. kBytes
========================================================================

   base      :      30000. kBytes
   nonl-proj :       6981. kBytes
   fftplans  :         46. kBytes
   grid      :        285. kBytes
   one-center:         62. kBytes
   wavefun   :       1769. kBytes
 
     INWAV:  cpu time    0.0000: real time    0.0000
 Broyden mixing: mesh for mixing (old mesh)
   NGX =  9   NGY =  9   NGZ =  9
  (NGX  = 28   NGY  = 28   NGZ  = 28)
  gives a total of    729 points

 initial charge density was supplied:
 charge density of overlapping atoms calculated
 number of electron      16.0000000 magnetization       2.0000000
 keeping initial charge density in first step


--------------------------------------------------------------------------------------------------------


 Maximum index for augmentation-charges          301 (set IRDMAX)


--------------------------------------------------------------------------------------------------------


 First call to EWALD:  gamma=   0.620
 Maximum number of real-space cells 3x 3x 3
 Maximum number of reciprocal cells 3x 3x 3

 FEWALD executed in parallel
    FEWALD:  cpu time    0.0020: real time    0.0022


----------------------------------------- Iteration    1(   1)  ---------------------------------------


    POTLOK:  cpu time    0.0160: real time    0.0161
    SETDIJ:  cpu time    0.0070: real time    0.0070
     EDDAV:  cpu time    2.5096: real time    2.5124
       DOS:  cpu time    0.0020: real time    0.0020
    --------------------------------------------
      LOOP:  cpu time    2.5396: real time    2.5533

 eigenvalue-minimisations  : 13920
 total energy-change (2. order) :-0.6835346E+01  (-0.7489037E+03)
 number of electron      16.0000000 magnetization       2.0000000
 augmentation part       16.0000000 magnetization       2.0000000

 Free energy of the ion-electron system (eV)
  ---------------------------------------------------
  alpha Z        PSCENC =       118.17524546
  Ewald energy   TEWEN  =     -1172.68111701
  -Hartree energ DENC   =      -227.55063009
  -exchange      EXHF   =         0.00000000
  -V(xc)+E(xc)   XCENC  =         7.90833155
  PAW double counting   =      1109.45345578    -1124.86183816
  entropy T*S    EENTRO =        -0.00126780
  eigenvalues    EBANDS =        94.10942236
  atomic energy  EATOM  =      1188.61305229
  Solvation  Ediel_sol  =         0.00000000
  ---------------------------------------------------
  free energy    TOTEN  =        -6.83534563 eV

  energy without entropy =       -6.83407782  energy(sigma->0) =       -6.83492302


--------------------------------------------------------------------------------------------------------




----------------------------------------- Iteration    1(   2)  ---------------------------------------


     EDDAV:  cpu time    4.3103: real time    4.3139
       DOS:  cpu time    0.0020: real time    0.0021
    --------------------------------------------
      LOOP:  cpu time    4.3143: real time    4.3291

 eigenvalue-minimisations  : 19392
 total energy-change (2. order) :-0.1164468E+02  (-0.1138561E+02)
 number of electron      16.0000000 magnetization       2.0000000
 augmentation part       16.0000000 magnetization       2.0000000

 Free energy of the ion-electron system (eV)
  ---------------------------------------------------
  alpha Z        PSCENC =       118.17524546
  Ewald energy   TEWEN  =     -1172.68111701
  -Hartree energ DENC   =      -227.55063009
  -exchange      EXHF   =         0.00000000
  -V(xc)+E(xc)   XCENC  =         7.90833155
  PAW double counting   =      1109.45345578    -1124.86183816
  entropy T*S    EENTRO =        -0.01444804
  eigenvalues    EBANDS =        82.47792025
  atomic energy  EATOM  =      1188.61305229
  Solvation  Ediel_sol  =         0.00000000
  ---------------------------------------------------
  free energy    TOTEN  =       -18.48002798 eV

  energy without entropy =      -18.46557994  energy(sigma->0) =      -18.47521196


--------------------------------------------------------------------------------------------------------




----------------------------------------- Iteration    1(   3)  ---------------------------------------


     EDDAV:  cpu time    2.8566: real time    2.8575
       DOS:  cpu time    0.0020: real time    0.0021
    --------------------------------------------
      LOOP:  cpu time    2.8596: real time    2.8725

 eigenvalue-minimisations  : 14880
 total energy-change (2. order) :-0.1169466E-01  (-0.1168514E-01)
 number of electron      16.0000000 magnetization       2.0000000
 augmentation part       16.0000000 magnetization       2.0000000

 Free energy of the ion-electron system (eV)
  ---------------------------------------------------
  alpha Z        PSCENC =       118.17524546
  Ewald energy   TEWEN  =     -1172.68111701
  -Hartree energ DENC   =      -227.55063009
  -exchange      EXHF   =         0.00000000
  -V(xc)+E(xc)   XCENC  =         7.90833155
  PAW double counting   =      1109.45345578    -1124.86183816
  entropy T*S    EENTRO =        -0.01454829
  eigenvalues    EBANDS =        82.46632583
  atomic energy  EATOM  =      1188.61305229
  Solvation  Ediel_sol  =         0.00000000
  ---------------------------------------------------
  free energy    TOTEN  =       -18.49172264 eV

  energy without entropy =      -18.47717436  energy(sigma->0) =      -18.48687321


--------------------------------------------------------------------------------------------------------




----------------------------------------- Iteration    1(   4)  ---------------------------------------


     EDDAV:  cpu time    6.5550: real time    6.5571
       DOS:  cpu time    0.0020: real time    0.0020
    --------------------------------------------
      LOOP:  cpu time    6.5580: real time    6.5720

 eigenvalue-minimisations  : 24256
 total energy-change (2. order) :-0.8318958E-05  (-0.8318934E-05)
 number of electron      16.0000000 magnetization       2.0000000
 augmentation part       16.0000000 magnetization       2.0000000

 Free energy of the ion-electron system (eV)
  ---------------------------------------------------
  alpha Z        PSCENC =       118.17524546
  Ewald energy   TEWEN  =     -1172.68111701
  -Hartree energ DENC   =      -227.55063009
  -exchange      EXHF   =         0.00000000
  -V(xc)+E(xc)   XCENC  =         7.90833155
  PAW double counting   =      1109.45345578    -1124.86183816
  entropy T*S    EENTRO =        -0.01454843
  eigenvalues    EBANDS =        82.46631765
  atomic energy  EATOM  =      1188.61305229
  Solvation  Ediel_sol  =         0.00000000
  ---------------------------------------------------
  free energy    TOTEN  =       -18.49173096 eV

  energy without entropy =      -18.47718253  energy(sigma->0) =      -18.48688149


--------------------------------------------------------------------------------------------------------




----------------------------------------- Iteration    1(   5)  ---------------------------------------


     EDDAV:  cpu time    3.0905: real time    3.0942
       DOS:  cpu time    0.0020: real time    0.0021
    CHARGE:  cpu time    0.0110: real time    0.0115
    MIXING:  cpu time    0.0010: real time    0.0004
    --------------------------------------------
      LOOP:  cpu time    3.1055: real time    3.1209

 eigenvalue-minimisations  : 15328
 total energy-change (2. order) : 0.7487415E-09  (-0.3128501E-10)
 number of electron      15.9999915 magnetization       2.4719659
 augmentation part        7.1378474 magnetization       1.8100798

 Broyden mixing:
  rms(total) = 0.15770E+01    rms(broyden)= 0.15763E+01
  rms(prec ) = 0.37540E+01
  weight for this iteration     100.00

 Free energy of the ion-electron system (eV)
  ---------------------------------------------------
  alpha Z        PSCENC =       118.17524546
  Ewald energy   TEWEN  =     -1172.68111701
  -Hartree energ DENC   =      -227.55063009
  -exchange      EXHF   =         0.00000000
  -V(xc)+E(xc)   XCENC  =         7.90833155
  PAW double counting   =      1109.45345578    -1124.86183816
  entropy T*S    EENTRO =        -0.01454843
  eigenvalues    EBANDS =        82.46631765
  atomic energy  EATOM  =      1188.61305229
  Solvation  Ediel_sol  =         0.00000000
  ---------------------------------------------------
  free energy    TOTEN  =       -18.49173096 eV

  energy without entropy =      -18.47718253  energy(sigma->0) =      -18.48688148


--------------------------------------------------------------------------------------------------------




----------------------------------------- Iteration    1(   6)  ---------------------------------------


    POTLOK:  cpu time    0.0020: real time    0.0033
    SETDIJ:  cpu time    0.0070: real time    0.0070
     EDDAV:  cpu time    4.3523: real time    4.3943
       DOS:  cpu time    0.0020: real time    0.0020
    CHARGE:  cpu time    0.0120: real time    0.0122
    MIXING:  cpu time    0.0010: real time    0.0004
    --------------------------------------------
      LOOP:  cpu time    4.3783: real time    4.4317

 eigenvalue-minimisations  : 18688
 total energy-change (2. order) : 0.2070287E+01  (-0.3336815E+01)
 number of electron      15.9999891 magnetization       3.5313039
 augmentation part        8.6515399 magnetization       2.8650968

 Broyden mixing:
  rms(total) = 0.90424E+00    rms(broyden)= 0.90370E+00
  rms(prec ) = 0.11968E+01
  weight for this iteration     100.00

 eigenvalues of (default mixing * dielectric matrix)
  average eigenvalue GAMMA=   0.5705
  0.5705

 Free energy of the ion-electron system (eV)
  ---------------------------------------------------
  alpha Z        PSCENC =       118.17524546
  Ewald energy   TEWEN  =     -1172.68111701
  -Hartree energ DENC   =      -191.85449590
  -exchange      EXHF   =         0.00000000
  -V(xc)+E(xc)   XCENC  =         6.62774921
  PAW double counting   =      1194.08268619    -1204.49908550
  entropy T*S    EENTRO =         0.01793767
  eigenvalues    EBANDS =        45.09658356
  atomic energy  EATOM  =      1188.61305229
  Solvation  Ediel_sol  =         0.00000000
  ---------------------------------------------------
  free energy    TOTEN  =       -16.42144404 eV

  energy without entropy =      -16.43938171  energy(sigma->0) =      -16.42742326


--------------------------------------------------------------------------------------------------------




----------------------------------------- Iteration    1(   7)  ---------------------------------------


    POTLOK:  cpu time    0.0030: real time    0.0033
    SETDIJ:  cpu time    0.0070: real time    0.0070
     EDDAV:  cpu time    3.3115: real time    3.3139
       DOS:  cpu time    0.0020: real time    0.0019
    CHARGE:  cpu time    0.0120: real time    0.0114
    MIXING:  cpu time    0.0000: real time    0.0003
    --------------------------------------------
      LOOP:  cpu time    3.3355: real time    3.3505

 eigenvalue-minimisations  : 16128
 total energy-change (2. order) : 0.4188025E-01  (-0.2652309E+00)
 number of electron      15.9999897 magnetization       4.3275976
 augmentation part        8.2678385 magnetization       3.5700508

 Broyden mixing:
  rms(total) = 0.46004E+00    rms(broyden)= 0.46003E+00
  rms(prec ) = 0.51202E+00
  weight for this iteration     100.00

 eigenvalues of (default mixing * dielectric matrix)
  average eigenvalue GAMMA=   0.8915
  1.1523  0.6308

 Free energy of the ion-electron system (eV)
  ---------------------------------------------------
  alpha Z        PSCENC =       118.17524546
  Ewald energy   TEWEN  =     -1172.68111701
  -Hartree energ DENC   =      -198.21183384
  -exchange      EXHF   =         0.00000000
  -V(xc)+E(xc)   XCENC  =         7.77277269
  PAW double counting   =      1260.46751834    -1274.65284254
  entropy T*S    EENTRO =        -0.01967164
  eigenvalues    EBANDS =        54.15731246
  atomic energy  EATOM  =      1188.61305229
  Solvation  Ediel_sol  =         0.00000000
  ---------------------------------------------------
  free energy    TOTEN  =       -16.37956379 eV

  energy without entropy =      -16.35989215  energy(sigma->0) =      -16.37300658


--------------------------------------------------------------------------------------------------------




----------------------------------------- Iteration    1(   8)  ---------------------------------------


    POTLOK:  cpu time    0.0020: real time    0.0033
    SETDIJ:  cpu time    0.0070: real time    0.0070
     EDDAV:  cpu time    5.0432: real time    5.0454
       DOS:  cpu time    0.0020: real time    0.0018
    CHARGE:  cpu time    0.0120: real time    0.0131
    MIXING:  cpu time    0.0010: real time    0.0002
    --------------------------------------------
      LOOP:  cpu time    5.0692: real time    5.0837

 eigenvalue-minimisations  : 21248
 total energy-change (2. order) :-0.6655423E-01  (-0.1472905E-01)
 number of electron      15.9999898 magnetization       4.4942669
 augmentation part        8.2751122 magnetization       3.7691920

 Broyden mixing:
  rms(total) = 0.24328E+00    rms(broyden)= 0.24321E+00
  rms(prec ) = 0.28541E+00
  weight for this iteration     100.00

 eigenvalues of (default mixing * dielectric matrix)
  average eigenvalue GAMMA=   1.0028
  1.6948  0.6568  0.6568

 Free energy of the ion-electron system (eV)
  ---------------------------------------------------
  alpha Z        PSCENC =       118.17524546
  Ewald energy   TEWEN  =     -1172.68111701
  -Hartree energ DENC   =      -196.61759471
  -exchange      EXHF   =         0.00000000
  -V(xc)+E(xc)   XCENC  =         8.44151918
  PAW double counting   =      1317.25949422    -1333.10643761
  entropy T*S    EENTRO =        -0.01647729
  eigenvalues    EBANDS =        53.48619747
  atomic energy  EATOM  =      1188.61305229
  Solvation  Ediel_sol  =         0.00000000
  ---------------------------------------------------
  free energy    TOTEN  =       -16.44611802 eV

  energy without entropy =      -16.42964073  energy(sigma->0) =      -16.44062559


--------------------------------------------------------------------------------------------------------




----------------------------------------- Iteration    1(   9)  ---------------------------------------


    POTLOK:  cpu time    0.0020: real time    0.0033
    SETDIJ:  cpu time    0.0070: real time    0.0070
     EDDAV:  cpu time    4.9053: real time    4.9066
       DOS:  cpu time    0.0020: real time    0.0019
    CHARGE:  cpu time    0.0150: real time    0.0149
    MIXING:  cpu time    0.0000: real time    0.0003
    --------------------------------------------
      LOOP:  cpu time    4.9322: real time    4.9464

 eigenvalue-minimisations  : 20608
 total energy-change (2. order) : 0.1133298E-01  (-0.2798912E-02)
 number of electron      15.9999897 magnetization       4.3678004
 augmentation part        8.2960286 magnetization       3.6273185

 Broyden mixing:
  rms(total) = 0.13004E+00    rms(broyden)= 0.12993E+00
  rms(prec ) = 0.13972E+00
  weight for this iteration     100.00

 eigenvalues of (default mixing * dielectric matrix)
  average eigenvalue GAMMA=   1.4302
  2.9342  1.3840  0.7761  0.6266

 Free energy of the ion-electron system (eV)
  ---------------------------------------------------
  alpha Z        PSCENC =       118.17524546
  Ewald energy   TEWEN  =     -1172.68111701
  -Hartree energ DENC   =      -195.12258006
  -exchange      EXHF   =         0.00000000
  -V(xc)+E(xc)   XCENC  =         8.62384841
  PAW double counting   =      1370.04863708    -1387.25016209
  entropy T*S    EENTRO =        -0.01704284
  eigenvalues    EBANDS =        53.17533373
  atomic energy  EATOM  =      1188.61305229
  Solvation  Ediel_sol  =         0.00000000
  ---------------------------------------------------
  free energy    TOTEN  =       -16.43478504 eV

  energy without entropy =      -16.41774219  energy(sigma->0) =      -16.42910409


--------------------------------------------------------------------------------------------------------




----------------------------------------- Iteration    1(  10)  ---------------------------------------


    POTLOK:  cpu time    0.0030: real time    0.0033
    SETDIJ:  cpu time    0.0070: real time    0.0070
     EDDAV:  cpu time    4.9203: real time    4.9227
       DOS:  cpu time    0.0010: real time    0.0019
    CHARGE:  cpu time    0.0150: real time    0.0150
    MIXING:  cpu time    0.0010: real time    0.0003
    --------------------------------------------
      LOOP:  cpu time    4.9482: real time    4.9636

 eigenvalue-minimisations  : 20480
 total energy-change (2. order) :-0.1467212E-02  (-0.1886702E-02)
 number of electron      15.9999897 magnetization       4.3227985
 augmentation part        8.2789074 magnetization       3.5878286

 Broyden mixing:
  rms(total) = 0.78967E-01    rms(broyden)= 0.78964E-01
  rms(prec ) = 0.86536E-01
  weight for this iteration     100.00

 eigenvalues of (default mixing * dielectric matrix)
  average eigenvalue GAMMA=   1.2246
  2.3264  1.5708  0.9325  0.6467  0.6467

 Free energy of the ion-electron system (eV)
  ---------------------------------------------------
  alpha Z        PSCENC =       118.17524546
  Ewald energy   TEWEN  =     -1172.68111701
  -Hartree energ DENC   =      -193.98786064
  -exchange      EXHF   =         0.00000000
  -V(xc)+E(xc)   XCENC  =         8.44927311
  PAW double counting   =      1432.15485417    -1450.68939877
  entropy T*S    EENTRO =        -0.01730204
  eigenvalues    EBANDS =        53.54700118
  atomic energy  EATOM  =      1188.61305229
  Solvation  Ediel_sol  =         0.00000000
  ---------------------------------------------------
  free energy    TOTEN  =       -16.43625225 eV

  energy without entropy =      -16.41895021  energy(sigma->0) =      -16.43048490


--------------------------------------------------------------------------------------------------------




----------------------------------------- Iteration    1(  11)  ---------------------------------------


    POTLOK:  cpu time    0.0030: real time    0.0033
    SETDIJ:  cpu time    0.0070: real time    0.0070
     EDDAV:  cpu time    4.4413: real time    4.4428
       DOS:  cpu time    0.0010: real time    0.0016
    CHARGE:  cpu time    0.0150: real time    0.0150
    MIXING:  cpu time    0.0010: real time    0.0003
    --------------------------------------------
      LOOP:  cpu time    4.4693: real time    4.4830

 eigenvalue-minimisations  : 19072
 total energy-change (2. order) : 0.5220601E-03  (-0.5755165E-03)
 number of electron      15.9999898 magnetization       4.3400667
 augmentation part        8.2930752 magnetization       3.6105860

 Broyden mixing:
  rms(total) = 0.14626E-01    rms(broyden)= 0.14597E-01
  rms(prec ) = 0.18824E-01
  weight for this iteration     100.00

 eigenvalues of (default mixing * dielectric matrix)
  average eigenvalue GAMMA=   1.1285
  2.2643  1.2586  1.2586  0.6343  0.6777  0.6777

 Free energy of the ion-electron system (eV)
  ---------------------------------------------------
  alpha Z        PSCENC =       118.17524546
  Ewald energy   TEWEN  =     -1172.68111701
  -Hartree energ DENC   =      -194.14277578
  -exchange      EXHF   =         0.00000000
  -V(xc)+E(xc)   XCENC  =         8.40206803
  PAW double counting   =      1410.96292859    -1428.92912477
  entropy T*S    EENTRO =        -0.01758722
  eigenvalues    EBANDS =        53.18158022
  atomic energy  EATOM  =      1188.61305229
  Solvation  Ediel_sol  =         0.00000000
  ---------------------------------------------------
  free energy    TOTEN  =       -16.43573019 eV

  energy without entropy =      -16.41814297  energy(sigma->0) =      -16.42986778


--------------------------------------------------------------------------------------------------------




----------------------------------------- Iteration    1(  12)  ---------------------------------------


    POTLOK:  cpu time    0.0030: real time    0.0033
    SETDIJ:  cpu time    0.0070: real time    0.0070
     EDDAV:  cpu time    4.2524: real time    4.2545
       DOS:  cpu time    0.0020: real time    0.0019
    CHARGE:  cpu time    0.0150: real time    0.0150
    MIXING:  cpu time    0.0010: real time    0.0003
    --------------------------------------------
      LOOP:  cpu time    4.2813: real time    4.2949

 eigenvalue-minimisations  : 18848
 total energy-change (2. order) : 0.2228629E-04  (-0.2402743E-04)
 number of electron      15.9999897 magnetization       4.3341111
 augmentation part        8.2967739 magnetization       3.6047289

 Broyden mixing:
  rms(total) = 0.49184E-02    rms(broyden)= 0.49170E-02
  rms(prec ) = 0.61368E-02
  weight for this iteration     100.00

 eigenvalues of (default mixing * dielectric matrix)
  average eigenvalue GAMMA=   1.1072
  2.2788  1.4719  1.0011  1.0011  0.6874  0.6874  0.6230

 Free energy of the ion-electron system (eV)
  ---------------------------------------------------
  alpha Z        PSCENC =       118.17524546
  Ewald energy   TEWEN  =     -1172.68111701
  -Hartree energ DENC   =      -194.09806400
  -exchange      EXHF   =         0.00000000
  -V(xc)+E(xc)   XCENC  =         8.42782637
  PAW double counting   =      1410.69567030    -1428.65434885
  entropy T*S    EENTRO =        -0.01771044
  eigenvalues    EBANDS =        53.10373797
  atomic energy  EATOM  =      1188.61305229
  Solvation  Ediel_sol  =         0.00000000
  ---------------------------------------------------
  free energy    TOTEN  =       -16.43570790 eV

  energy without entropy =      -16.41799747  energy(sigma->0) =      -16.42980442


--------------------------------------------------------------------------------------------------------




----------------------------------------- Iteration    1(  13)  ---------------------------------------


    POTLOK:  cpu time    0.0030: real time    0.0033
    SETDIJ:  cpu time    0.0070: real time    0.0070
     EDDAV:  cpu time    2.4966: real time    2.4969
       DOS:  cpu time    0.0020: real time    0.0018
    --------------------------------------------
      LOOP:  cpu time    2.5086: real time    2.5220

 eigenvalue-minimisations  : 12608
 total energy-change (2. order) :-0.1277255E-05  (-0.5047033E-05)
 number of electron      15.9999897 magnetization       4.3341111
 augmentation part        8.2967739 magnetization       3.6047289

 Free energy of the ion-electron system (eV)
  ---------------------------------------------------
  alpha Z        PSCENC =       118.17524546
  Ewald energy   TEWEN  =     -1172.68111701
  -Hartree energ DENC   =      -194.08634690
  -exchange      EXHF   =         0.00000000
  -V(xc)+E(xc)   XCENC  =         8.42112278
  PAW double counting   =      1411.24922157    -1429.20906183
  entropy T*S    EENTRO =        -0.01770311
  eigenvalues    EBANDS =        53.09987757
  atomic energy  EATOM  =      1188.61305229
  Solvation  Ediel_sol  =         0.00000000
  ---------------------------------------------------
  free energy    TOTEN  =       -16.43570918 eV

  energy without entropy =      -16.41800607  energy(sigma->0) =      -16.42980814


--------------------------------------------------------------------------------------------------------




 average (electrostatic) potential at core
  the test charge radii are     1.0103
  (the norm of the test charge is              1.0000)
       1 -43.6355       2 -43.6390
 
 
 
 E-fermi :   5.4407     XC(G=0): -12.9586     alpha+bet :-13.2519


 spin component 1

 k-point     1 :       0.0833    0.0833    0.0833
  band No.  band energies     occupation 
      1      -2.2967      1.00000
      2       1.0255      1.00000
      3       1.0255      1.00000
      4       3.1617      1.00000
      5       3.1617      1.00000
      6       3.5018      1.00000
      7       4.3855      1.00000
      8       4.3855      1.00000
      9       4.9711      1.00222
     10       5.4501      0.46000
     11       5.4501      0.46000
     12      14.5618      0.00000
     13      14.5618      0.00000
     14      15.1628      0.00000
     15      22.1861      0.00000
     16      22.1861      0.00000
     17      26.9122      0.00000
     18      28.3426      0.00000
     19      28.3426      0.00000
     20      30.6732      0.00000
     21      32.7399      0.00000
     22      35.2981      0.00000
     23      35.2981      0.00000
     24      36.7765      0.00000
     25      36.7765      0.00000
     26      41.0807      0.00000
     27      41.4075      0.00000
     28      41.4075      0.00000
     29      42.7017      0.00000
     30      48.3397      0.00000
     31      50.3270      0.00000
     32      50.3270      0.00000

 k-point     2 :       0.2500    0.0833    0.0833
  band No.  band energies     occupation 
      1      -1.2559      1.00000
      2       1.4072      1.00000
      3       1.4387      1.00000
      4       3.0475      1.00000
      5       3.1001      1.00000
      6       3.9379      1.00000
      7       4.0444      1.00000
      8       4.1709      1.00000
      9       4.5839      1.00000
     10       4.7679      1.00001
     11       5.3894      0.70946
     12      10.5778     -0.00000
     13      16.2180      0.00000
     14      16.6177      0.00000
     15      22.7810      0.00000
     16      24.3620      0.00000
     17      24.7064      0.00000
     18      26.0497      0.00000
     19      29.5413      0.00000
     20      30.7561      0.00000
     21      30.8909      0.00000
     22      32.7293      0.00000
     23      35.2807      0.00000
     24      38.9411      0.00000
     25      39.5737      0.00000
     26      40.9629      0.00000
     27      43.7315      0.00000
     28      44.7054      0.00000
     29      45.4965      0.00000
     30      45.5437      0.00000
     31      46.9348      0.00000
     32      51.6417      0.00000

 k-point     3 :       0.4167    0.0833    0.0833
  band No.  band energies     occupation 
      1       0.3979      1.00000
      2       1.4957      1.00000
      3       2.1430      1.00000
      4       2.8435      1.00000
      5       3.2054      1.00000
      6       3.5460      1.00000
      7       3.7358      1.00000
      8       4.0493      1.00000
      9       4.4773      1.00000
     10       4.9765      1.00248
     11       5.1060      1.01972
     12       6.9979     -0.00000
     13      18.7329      0.00000
     14      19.1972      0.00000
     15      21.5510      0.00000
     16      22.4159      0.00000
     17      24.1764      0.00000
     18      25.7926      0.00000
     19      26.5841      0.00000
     20      28.1060      0.00000
     21      33.8129      0.00000
     22      35.9455      0.00000
     23      37.5171      0.00000
     24      37.9462      0.00000
     25      40.3818      0.00000
     26      41.1631      0.00000
     27      42.7133      0.00000
     28      44.6161      0.00000
     29      46.9308      0.00000
     30      47.9062      0.00000
     31      49.0554      0.00000
     32      51.2489      0.00000

 k-point     4 :      -0.4167    0.0833    0.0833
  band No.  band energies     occupation 
      1       0.3979      1.00000
      2       1.4957      1.00000
      3       2.1430      1.00000
      4       2.8435      1.00000
      5       3.2054      1.00000
      6       3.5460      1.00000
      7       3.7358      1.00000
      8       4.0493      1.00000
      9       4.4773      1.00000
     10       4.9765      1.00248
     11       5.1060      1.01972
     12       6.9979     -0.00000
     13      18.7329      0.00000
     14      19.1972      0.00000
     15      21.5510      0.00000
     16      22.4159      0.00000
     17      24.1764      0.00000
     18      25.7926      0.00000
     19      26.5841      0.00000
     20      28.1060      0.00000
     21      33.8129      0.00000
     22      35.9455      0.00000
     23      37.5171      0.00000
     24      37.9462      0.00000
     25      40.3818      0.00000
     26      41.1631      0.00000
     27      42.7133      0.00000
     28      44.6161      0.00000
     29      46.9308      0.00000
     30      47.9062      0.00000
     31      49.0554      0.00000
     32      51.2489      0.00000

 k-point     5 :      -0.2500    0.0833    0.0833
  band No.  band energies     occupation 
      1      -1.2559      1.00000
      2       1.4072      1.00000
      3       1.4387      1.00000
      4       3.0475      1.00000
      5       3.1001      1.00000
      6       3.9379      1.00000
      7       4.0444      1.00000
      8       4.1709      1.00000
      9       4.5839      1.00000
     10       4.7679      1.00001
     11       5.3894      0.70946
     12      10.5778     -0.00000
     13      16.2180      0.00000
     14      16.6177      0.00000
     15      22.7810      0.00000
     16      24.3620      0.00000
     17      24.7064      0.00000
     18      26.0497      0.00000
     19      29.5413      0.00000
     20      30.7561      0.00000
     21      30.8909      0.00000
     22      32.7293      0.00000
     23      35.2807      0.00000
     24      38.9411      0.00000
     25      39.5737      0.00000
     26      40.9629      0.00000
     27      43.7315      0.00000
     28      44.7054      0.00000
     29      45.4965      0.00000
     30      45.5437      0.00000
     31      46.9348      0.00000
     32      51.6417      0.00000

 k-point     6 :      -0.0833    0.0833    0.0833
  band No.  band energies     occupation 
      1      -2.2967      1.00000
      2       1.0255      1.00000
      3       1.0255      1.00000
      4       3.1617      1.00000
      5       3.1617      1.00000
      6       3.5018      1.00000
      7       4.3855      1.00000
      8       4.3855      1.00000
      9       4.9711      1.00222
     10       5.4501      0.46000
     11       5.4501      0.46000
     12      14.5618      0.00000
     13      14.5618      0.00000
     14      15.1628      0.00000
     15      22.1861      0.00000
     16      22.1861      0.00000
     17      26.9122      0.00000
     18      28.3426      0.00000
     19      28.3426      0.00000
     20      30.6732      0.00000
     21      32.7399      0.00000
     22      35.2981      0.00000
     23      35.2981      0.00000
     24      36.7765      0.00000
     25      36.7765      0.00000
     26      41.0807      0.00000
     27      41.4075      0.00000
     28      41.4075      0.00000
     29      42.7017      0.00000
     30      48.3397      0.00000
     31      50.3270      0.00000
     32      50.3270      0.00000

 k-point     7 :       0.0833    0.2500    0.0833
  band No.  band energies     occupation 
      1      -1.2559      1.00000
      2       1.4072      1.00000
      3       1.4387      1.00000
      4       3.0475      1.00000
      5       3.1001      1.00000
      6       3.9379      1.00000
      7       4.0444      1.00000
      8       4.1709      1.00000
      9       4.5839      1.00000
     10       4.7679      1.00001
     11       5.3894      0.70946
     12      10.5778     -0.00000
     13      16.2180      0.00000
     14      16.6177      0.00000
     15      22.7810      0.00000
     16      24.3620      0.00000
     17      24.7064      0.00000
     18      26.0497      0.00000
     19      29.5413      0.00000
     20      30.7561      0.00000
     21      30.8909      0.00000
     22      32.7293      0.00000
     23      35.2807      0.00000
     24      38.9411      0.00000
     25      39.5737      0.00000
     26      40.9629      0.00000
     27      43.7315      0.00000
     28      44.7054      0.00000
     29      45.4965      0.00000
     30      45.5437      0.00000
     31      46.9348      0.00000
     32      51.6417      0.00000

 k-point     8 :       0.2500    0.2500    0.0833
  band No.  band energies     occupation 
      1      -0.3756      1.00000
      2       1.5256      1.00000
      3       1.9678      1.00000
      4       2.6879      1.00000
      5       2.9886      1.00000
      6       3.3597      1.00000
      7       4.2816      1.00000
      8       4.4204      1.00000
      9       4.4874      1.00000
     10       4.6097      1.00000
     11       5.5484      0.10954
     12      10.8040     -0.00000
     13      13.2141      0.00000
     14      17.6802      0.00000
     15      21.0976      0.00000
     16      23.9285      0.00000
     17      25.2331      0.00000
     18      27.6375      0.00000
     19      28.1850      0.00000
     20      30.4524      0.00000
     21      32.0964      0.00000
     22      34.1044      0.00000
     23      36.2634      0.00000
     24      36.3558      0.00000
     25      39.1724      0.00000
     26      41.7946      0.00000
     27      42.1137      0.00000
     28      45.7879      0.00000
     29      48.1852      0.00000
     30      50.0103      0.00000
     31      50.0582      0.00000
     32      51.9998      0.00000

 k-point     9 :       0.4167    0.2500    0.0833
  band No.  band energies     occupation 
      1       0.7476      1.00000
      2       1.3786      1.00000
      3       2.5656      1.00000
      4       2.5666      1.00000
      5       2.9474      1.00000
      6       3.1207      1.00000
      7       4.1909      1.00000
      8       4.2464      1.00000
      9       4.7979      1.00003
     10       5.3689      0.78329
     11       5.4958      0.27613
     12       7.7009     -0.00000
     13      14.7247      0.00000
     14      17.5426      0.00000
     15      19.8331      0.00000
     16      22.5999      0.00000
     17      25.0411      0.00000
     18      26.5530      0.00000
     19      29.9444      0.00000
     20      30.3359      0.00000
     21      32.6413      0.00000
     22      33.7868      0.00000
     23      35.7336      0.00000
     24      37.2053      0.00000
     25      40.0770      0.00000
     26      43.4302      0.00000
     27      45.0720      0.00000
     28      47.3561      0.00000
     29      47.6795      0.00000
     30      51.1690      0.00000
     31      51.7766      0.00000
     32      52.4661      0.00000

 k-point    10 :      -0.4167    0.2500    0.0833
  band No.  band energies     occupation 
      1       0.7476      1.00000
      2       1.3786      1.00000
      3       2.5656      1.00000
      4       2.5666      1.00000
      5       2.9474      1.00000
      6       3.1207      1.00000
      7       4.1909      1.00000
      8       4.2464      1.00000
      9       4.7979      1.00003
     10       5.3689      0.78329
     11       5.4958      0.27613
     12       7.7009     -0.00000
     13      14.7247      0.00000
     14      17.5426      0.00000
     15      19.8331      0.00000
     16      22.5999      0.00000
     17      25.0411      0.00000
     18      26.5530      0.00000
     19      29.9444      0.00000
     20      30.3359      0.00000
     21      32.6413      0.00000
     22      33.7868      0.00000
     23      35.7336      0.00000
     24      37.2053      0.00000
     25      40.0770      0.00000
     26      43.4302      0.00000
     27      45.0720      0.00000
     28      47.3561      0.00000
     29      47.6795      0.00000
     30      51.1690      0.00000
     31      51.7766      0.00000
     32      52.4661      0.00000

 k-point    11 :      -0.2500    0.2500    0.0833
  band No.  band energies     occupation 
      1      -0.3756      1.00000
      2       1.5256      1.00000
      3       1.9678      1.00000
      4       2.6879      1.00000
      5       2.9886      1.00000
      6       3.3597      1.00000
      7       4.2816      1.00000
      8       4.4204      1.00000
      9       4.4874      1.00000
     10       4.6097      1.00000
     11       5.5484      0.10954
[...]
      8       6.0268     -0.00014
      9       6.5416     -0.00000
     10       7.1245     -0.00000
     11       7.6843     -0.00000
     12       8.7555     -0.00000
     13      19.4568      0.00000
     14      19.8118      0.00000
     15      22.1297      0.00000
     16      22.9724      0.00000
     17      24.6397      0.00000
     18      26.2226      0.00000
     19      26.9159      0.00000
     20      28.5235      0.00000
     21      34.1978      0.00000
     22      36.3838      0.00000
     23      37.7908      0.00000
     24      38.5692      0.00000
     25      40.8234      0.00000
     26      41.5055      0.00000
     27      43.1065      0.00000
     28      45.0600      0.00000
     29      47.6357      0.00000
     30      48.0746      0.00000
     31      49.5956      0.00000
     32      51.9672      0.00000

 k-point   104 :       0.2500   -0.0833    0.4167
  band No.  band energies     occupation 
      1       1.3449      1.00000
      2       2.6349      1.00000
      3       4.2522      1.00000
      4       4.3343      1.00000
      5       4.6682      1.00000
      6       4.6850      1.00000
      7       6.4332     -0.00000
      8       6.6337     -0.00000
      9       7.2821     -0.00000
     10       7.6020     -0.00000
     11       7.6536     -0.00000
     12       9.2287     -0.00000
     13      15.7030      0.00000
     14      18.3408      0.00000
     15      20.4164      0.00000
     16      23.0308      0.00000
     17      25.3751      0.00000
     18      26.9190      0.00000
     19      30.3086      0.00000
     20      30.6539      0.00000
     21      33.0074      0.00000
     22      34.1405      0.00000
     23      36.0874      0.00000
     24      37.6951      0.00000
     25      40.7178      0.00000
     26      43.6367      0.00000
     27      45.4772      0.00000
     28      47.8702      0.00000
     29      48.0473      0.00000
     30      51.9270      0.00000
     31      52.3655      0.00000
     32      52.6769      0.00000

 k-point   105 :       0.4167   -0.0833    0.4167
  band No.  band energies     occupation 
      1       1.9361      1.00000
      2       2.3164      1.00000
      3       3.9872      1.00000
      4       4.0800      1.00000
      5       5.2428      1.02397
      6       5.2985      0.96370
      7       6.8414     -0.00000
      8       6.9935     -0.00000
      9       7.3578     -0.00000
     10       7.6946     -0.00000
     11       8.1414     -0.00000
     12       8.9236     -0.00000
     13      13.9787      0.00000
     14      15.2647      0.00000
     15      21.8328      0.00000
     16      23.2490      0.00000
     17      25.2977      0.00000
     18      25.3214      0.00000
     19      30.0167      0.00000
     20      30.2905      0.00000
     21      33.9948      0.00000
     22      35.1331      0.00000
     23      36.3712      0.00000
     24      39.7870      0.00000
     25      41.3927      0.00000
     26      43.3379      0.00000
     27      47.6921      0.00000
     28      48.4889      0.00000
     29      50.6941      0.00000
     30      51.3455      0.00000
     31      54.0635      0.00000
     32      54.4418      0.00000

 k-point   106 :      -0.4167   -0.0833    0.4167
  band No.  band energies     occupation 
      1       1.9361      1.00000
      2       2.3164      1.00000
      3       3.9872      1.00000
      4       4.0800      1.00000
      5       5.2428      1.02397
      6       5.2985      0.96370
      7       6.8414     -0.00000
      8       6.9935     -0.00000
      9       7.3578     -0.00000
     10       7.6946     -0.00000
     11       8.1414     -0.00000
     12       8.9236     -0.00000
     13      13.9787      0.00000
     14      15.2647      0.00000
     15      21.8328      0.00000
     16      23.2490      0.00000
     17      25.2977      0.00000
     18      25.3214      0.00000
     19      30.0167      0.00000
     20      30.2905      0.00000
     21      33.9948      0.00000
     22      35.1331      0.00000
     23      36.3712      0.00000
     24      39.7870      0.00000
     25      41.3927      0.00000
     26      43.3379      0.00000
     27      47.6921      0.00000
     28      48.4889      0.00000
     29      50.6941      0.00000
     30      51.3455      0.00000
     31      54.0635      0.00000
     32      54.4418      0.00000

 k-point   107 :      -0.2500   -0.0833    0.4167
  band No.  band energies     occupation 
      1       1.3449      1.00000
      2       2.6349      1.00000
      3       4.2522      1.00000
      4       4.3343      1.00000
      5       4.6682      1.00000
      6       4.6850      1.00000
      7       6.4332     -0.00000
      8       6.6337     -0.00000
      9       7.2821     -0.00000
     10       7.6020     -0.00000
     11       7.6536     -0.00000
     12       9.2287     -0.00000
     13      15.7030      0.00000
     14      18.3408      0.00000
     15      20.4164      0.00000
     16      23.0308      0.00000
     17      25.3751      0.00000
     18      26.9190      0.00000
     19      30.3086      0.00000
     20      30.6539      0.00000
     21      33.0074      0.00000
     22      34.1405      0.00000
     23      36.0874      0.00000
     24      37.6951      0.00000
     25      40.7178      0.00000
     26      43.6367      0.00000
     27      45.4772      0.00000
     28      47.8702      0.00000
     29      48.0473      0.00000
     30      51.9270      0.00000
     31      52.3655      0.00000
     32      52.6769      0.00000

 k-point   108 :      -0.0833   -0.0833    0.4167
  band No.  band energies     occupation 
      1       0.7219      1.00000
      2       2.4881      1.00000
      3       4.1451      1.00000
      4       4.8166      1.00005
      5       5.0119      1.00489
      6       5.4065      0.64212
      7       5.9535     -0.00087
      8       6.0268     -0.00014
      9       6.5416     -0.00000
     10       7.1245     -0.00000
     11       7.6843     -0.00000
     12       8.7555     -0.00000
     13      19.4568      0.00000
     14      19.8118      0.00000
     15      22.1297      0.00000
     16      22.9724      0.00000
     17      24.6397      0.00000
     18      26.2226      0.00000
     19      26.9159      0.00000
     20      28.5235      0.00000
     21      34.1978      0.00000
     22      36.3838      0.00000
     23      37.7908      0.00000
     24      38.5692      0.00000
     25      40.8234      0.00000
     26      41.5055      0.00000
     27      43.1065      0.00000
     28      45.0600      0.00000
     29      47.6357      0.00000
     30      48.0746      0.00000
     31      49.5956      0.00000
     32      51.9672      0.00000


--------------------------------------------------------------------------------------------------------


 soft charge-density along one line, spin component           1
         0         1         2         3         4         5         6         7         8         9
 total charge-density along one line
 
 soft charge-density along one line, spin component           2
         0         1         2         3         4         5         6         7         8         9
 total charge-density along one line
 
 pseudopotential strength for first ion, spin component:           1
 -5.809  -0.000  -0.000   0.000   0.000  -6.334  -0.000  -0.000
 -0.000  -5.809  -0.000   0.000   0.000  -0.000  -6.334  -0.000
 -0.000  -0.000  -5.984   0.000   0.000  -0.000  -0.000  -6.503
  0.000   0.000   0.000  -5.809  -0.000   0.000   0.000   0.000
  0.000   0.000   0.000  -0.000  -5.984   0.000   0.000   0.000
 -6.334  -0.000  -0.000   0.000   0.000  -6.816  -0.000  -0.000
 -0.000  -6.334  -0.000   0.000   0.000  -0.000  -6.816  -0.000
 -0.000  -0.000  -6.503   0.000   0.000  -0.000  -0.000  -6.981
  0.000   0.000   0.000  -6.334  -0.000   0.000   0.000   0.000
  0.000   0.000   0.000  -0.000  -6.503   0.000   0.000   0.000
 -0.000  -0.000   0.000   0.000   0.000  -0.000  -0.000   0.000
 -0.000  -0.000   0.000   0.000   0.000  -0.000  -0.000   0.000
 -0.000   0.000   0.000  -0.000  -0.000  -0.000   0.000   0.000
 -0.000   0.000   0.000   0.000  -0.000  -0.000   0.000   0.000
  0.000  -0.000   0.000   0.000   0.000   0.000  -0.000   0.000
  0.000   0.000   0.000  -0.000  -0.000   0.000   0.000   0.000
 -0.000   0.000   0.000   0.000   0.000  -0.000   0.000   0.000
  0.000  -0.000  -0.000   0.000   0.000   0.000  -0.000  -0.000
 pseudopotential strength for first ion, spin component:           2
 -4.346   0.000   0.000  -0.000   0.000  -4.917   0.000   0.000
  0.000  -4.346   0.000  -0.000   0.000   0.000  -4.917   0.000
  0.000   0.000  -4.115  -0.000  -0.000   0.000   0.000  -4.690
 -0.000  -0.000  -0.000  -4.346   0.000  -0.000  -0.000  -0.000
  0.000   0.000  -0.000   0.000  -4.115   0.000   0.000  -0.000
 -4.917   0.000   0.000  -0.000   0.000  -5.445   0.000   0.000
  0.000  -4.917   0.000  -0.000   0.000   0.000  -5.445   0.000
  0.000   0.000  -4.690  -0.000  -0.000   0.000   0.000  -5.223
 -0.000  -0.000  -0.000  -4.917   0.000  -0.000  -0.000  -0.000
  0.000   0.000  -0.000   0.000  -4.690   0.000   0.000  -0.000
  0.000  -0.000  -0.000  -0.000  -0.000   0.000  -0.000  -0.000
  0.000  -0.000  -0.000  -0.000  -0.000   0.000  -0.000  -0.000
 -0.000  -0.000  -0.000   0.000   0.000  -0.000   0.000  -0.000
  0.000  -0.000  -0.000  -0.000   0.000   0.000  -0.000  -0.000
  0.000   0.000   0.000   0.000  -0.000   0.000   0.000   0.000
 -0.000  -0.000  -0.000   0.000   0.000  -0.000  -0.000  -0.000
  0.000  -0.000  -0.000  -0.000   0.000   0.000  -0.000  -0.000
  0.000   0.000   0.000  -0.000  -0.000   0.000   0.000   0.000
 total augmentation occupancy for first ion, spin component:           1
  2.235  -0.000  -0.000   0.000   0.000  -1.185   0.000   0.000  -0.000  -0.000   0.000  -0.000  -0.000  -0.000   0.000   0.000
 -0.000   2.235  -0.000  -0.000   0.000   0.000  -1.185   0.000  -0.000  -0.000  -0.000   0.000  -0.000  -0.000  -0.000   0.000
 -0.000  -0.000   3.562   0.000  -0.000   0.000   0.000  -2.239  -0.000   0.000  -0.000   0.000   0.000   0.000  -0.000  -0.000
  0.000  -0.000   0.000   2.235  -0.000  -0.000  -0.000  -0.000  -1.185   0.000  -0.000   0.000   0.000  -0.000  -0.000  -0.000
  0.000   0.000  -0.000  -0.000   3.562  -0.000  -0.000   0.000   0.000  -2.239   0.000  -0.000  -0.000  -0.000  -0.000   0.000
 -1.185   0.000   0.000  -0.000  -0.000   1.523  -0.000  -0.000   0.000   0.000  -0.000   0.000   0.000  -0.000  -0.000  -0.000
  0.000  -1.185   0.000  -0.000  -0.000  -0.000   1.523  -0.000   0.000   0.000   0.000  -0.000  -0.000   0.000   0.000   0.000
  0.000   0.000  -2.239  -0.000   0.000  -0.000  -0.000   2.178   0.000  -0.000   0.000  -0.000  -0.000  -0.000   0.000   0.000
 -0.000  -0.000  -0.000  -1.185   0.000   0.000   0.000   0.000   1.523  -0.000   0.000  -0.000   0.000  -0.000   0.000  -0.000
 -0.000  -0.000   0.000   0.000  -2.239   0.000   0.000  -0.000  -0.000   2.178  -0.000   0.000   0.000  -0.000   0.000  -0.000
  0.000  -0.000  -0.000  -0.000   0.000  -0.000   0.000   0.000   0.000  -0.000   2.336  -0.266  -0.000   0.000   0.000   0.000
 -0.000   0.000   0.000   0.000  -0.000   0.000  -0.000  -0.000  -0.000   0.000  -0.266   0.036   0.000  -0.000  -0.000  -0.000
 -0.000  -0.000   0.000   0.000  -0.000   0.000  -0.000  -0.000   0.000   0.000  -0.000   0.000   0.283   0.000   0.000  -0.025
 -0.000  -0.000   0.000  -0.000  -0.000  -0.000   0.000  -0.000  -0.000  -0.000   0.000  -0.000   0.000   0.283  -0.000  -0.000
  0.000  -0.000  -0.000  -0.000  -0.000  -0.000   0.000   0.000   0.000   0.000   0.000  -0.000   0.000  -0.000   0.283  -0.000
  0.000   0.000  -0.000  -0.000   0.000  -0.000   0.000   0.000  -0.000  -0.000   0.000  -0.000  -0.025  -0.000  -0.000   0.002
  0.000   0.000  -0.000   0.000   0.000   0.000  -0.000   0.000   0.000   0.000  -0.000   0.000  -0.000  -0.025   0.000   0.000
 -0.000   0.000   0.000   0.000   0.000   0.000  -0.000  -0.000  -0.000  -0.000  -0.000   0.000  -0.000   0.000  -0.025   0.000
 total augmentation occupancy for first ion, spin component:           2
  1.883  -0.000  -0.000   0.000   0.000  -0.786  -0.000   0.000   0.000  -0.000   0.000  -0.000  -0.000  -0.000   0.000   0.000
 -0.000   1.883  -0.000  -0.000   0.000  -0.000  -0.786   0.000   0.000  -0.000  -0.000   0.000  -0.000   0.000  -0.000   0.000
 -0.000  -0.000   3.088   0.000  -0.000   0.000   0.000  -1.381  -0.000   0.000  -0.000   0.000   0.000   0.000  -0.000  -0.000
  0.000  -0.000   0.000   1.883  -0.000   0.000   0.000  -0.000  -0.786   0.000  -0.000   0.000   0.000  -0.000  -0.000  -0.000
  0.000   0.000  -0.000  -0.000   3.088  -0.000  -0.000   0.000   0.000  -1.381   0.000  -0.000   0.000  -0.000   0.000  -0.000
 -0.786  -0.000   0.000   0.000  -0.000   0.084   0.000  -0.000  -0.000   0.000  -0.000   0.000  -0.000  -0.000   0.000   0.000
 -0.000  -0.786   0.000   0.000  -0.000   0.000   0.084  -0.000  -0.000   0.000   0.000  -0.000   0.000  -0.000   0.000  -0.000
  0.000   0.000  -1.381  -0.000   0.000  -0.000  -0.000   0.394   0.000  -0.000  -0.000   0.000  -0.000  -0.000   0.000   0.000
  0.000   0.000  -0.000  -0.786   0.000  -0.000  -0.000   0.000   0.084  -0.000   0.000  -0.000   0.000   0.000  -0.000  -0.000
 -0.000  -0.000   0.000   0.000  -1.381   0.000   0.000  -0.000  -0.000   0.394  -0.000   0.000  -0.000  -0.000  -0.000   0.000
  0.000  -0.000  -0.000  -0.000   0.000  -0.000   0.000  -0.000   0.000  -0.000  -0.328   0.098  -0.000   0.000   0.000   0.000
 -0.000   0.000   0.000   0.000  -0.000   0.000  -0.000   0.000  -0.000   0.000   0.098  -0.017   0.000  -0.000  -0.000  -0.000
 -0.000  -0.000   0.000   0.000   0.000  -0.000   0.000  -0.000   0.000  -0.000  -0.000   0.000  -0.042   0.000   0.000   0.006
 -0.000   0.000   0.000  -0.000  -0.000  -0.000  -0.000  -0.000   0.000  -0.000   0.000  -0.000   0.000  -0.042  -0.000  -0.000
  0.000  -0.000  -0.000  -0.000   0.000   0.000   0.000   0.000  -0.000  -0.000   0.000  -0.000   0.000  -0.000  -0.042  -0.000
  0.000   0.000  -0.000  -0.000  -0.000   0.000  -0.000   0.000  -0.000   0.000   0.000  -0.000   0.006  -0.000  -0.000  -0.001
  0.000  -0.000  -0.000   0.000   0.000   0.000   0.000   0.000  -0.000   0.000  -0.000   0.000  -0.000   0.006   0.000   0.000
  0.000   0.000   0.000   0.000   0.000  -0.000  -0.000  -0.000   0.000  -0.000  -0.000   0.000  -0.000   0.000   0.006   0.000


------------------------ aborting loop because EDIFF is reached ----------------------------------------


    CHARGE:  cpu time    0.0120: real time    0.0126
    FORLOC:  cpu time    0.0000: real time    0.0000
    FORNL :  cpu time    0.0410: real time    0.0402
    STRESS:  cpu time    0.2200: real time    0.2204
    FORCOR:  cpu time    0.0030: real time    0.0028
    FORHAR:  cpu time    0.0010: real time    0.0005
    MIXING:  cpu time    0.0000: real time    0.0003
    OFIELD:  cpu time    0.0000: real time    0.0000

  FORCE on cell =-STRESS in cart. coord.  units (eV):
  Direction    XX          YY          ZZ          XY          YZ          ZX
  --------------------------------------------------------------------------------------
  Alpha Z   118.17525   118.17525   118.17525
  Ewald    -390.89368  -390.89368  -390.89368     0.00000     0.00000     0.00000
  Hartree    64.67611    64.67611    64.67611    -0.00000     0.00000     0.00000
  E(xc)     -79.16347   -79.16347   -79.16347    -0.00000    -0.00000     0.00000
  Local     116.14035   116.14035   116.14035     0.00000    -0.00000    -0.00000
  n-local   -52.22592   -52.22592   -52.22592    -0.00000     0.00000     0.00000
  augment    77.55732    77.55732    77.55732    -0.00000    -0.00000     0.00000
  Kinetic   144.69317   144.69317   144.69317     0.00000    -0.00000    -0.00000
  Fock        0.00000     0.00000     0.00000     0.00000     0.00000     0.00000
  -------------------------------------------------------------------------------------
  Total      -1.04087    -1.04087    -1.04087     0.00000    -0.00000    -0.00000
  in kB     -71.28677   -71.28691   -71.28691     0.00000    -0.00001    -0.00000
  external pressure =      -71.29 kB  Pullay stress =        0.00 kB


 VOLUME and BASIS-vectors are now :
 -----------------------------------------------------------------------------
  energy-cutoff  :      400.00
  volume of cell :       23.39
      direct lattice vectors                 reciprocal lattice vectors
     2.860000000  0.000000000  0.000000000     0.349650350  0.000000000  0.000000000
     0.000000000  2.860000000  0.000000000     0.000000000  0.349650350  0.000000000
     0.000000000  0.000000000  2.860000000     0.000000000  0.000000000  0.349650350

  length of vectors
     2.860000000  2.860000000  2.860000000     0.349650350  0.349650350  0.349650350


 FORCES acting on ions
    electron-ion (+dipol)            ewald-force                    non-local-force                 convergence-correction
 -----------------------------------------------------------------------------------------------
   0.201E-08 0.234E-07 0.634E-07   0.219E-14 -.742E-15 -.130E-14   0.197E-08 0.116E-07 0.353E-07   0.267E-07 -.692E-07 -.626E-07
   0.251E-07 -.353E-08 0.407E-07   -.209E-14 0.143E-14 -.194E-15   -.350E-08 0.111E-07 0.421E-07   -.213E-07 0.349E-07 -.709E-07
 -----------------------------------------------------------------------------------------------
   0.271E-07 0.198E-07 0.104E-06   0.102E-15 0.685E-15 -.150E-14   -.153E-08 0.227E-07 0.774E-07   0.545E-08 -.344E-07 -.133E-06
 
 
 POSITION                                       TOTAL-FORCE (eV/Angst)
 -----------------------------------------------------------------------------------
      0.00000      0.00000      0.00000         0.000000     -0.000000      0.000000
      1.43000      1.43000      1.43000        -0.000000      0.000000     -0.000000
 -----------------------------------------------------------------------------------
    total drift:                                0.000000      0.000000      0.000000


--------------------------------------------------------------------------------------------------------



  FREE ENERGIE OF THE ION-ELECTRON SYSTEM (eV)
  ---------------------------------------------------
  free  energy   TOTEN  =       -16.43570918 eV

  energy  without entropy=      -16.41800607  energy(sigma->0) =      -16.42980814
 


--------------------------------------------------------------------------------------------------------


    POTLOK:  cpu time    0.0100: real time    0.0104


--------------------------------------------------------------------------------------------------------




--------------------------------------------------------------------------------------------------------


  
 reached required accuracy - stopping structural energy minimisation
     LOOP+:  cpu time   53.6108: real time   53.8488
    4ORBIT:  cpu time    0.0000: real time    0.0000

 total amount of memory used by VASP on root node    39143. kBytes
========================================================================

   base      :      30000. kBytes
   nonl-proj :       6981. kBytes
   fftplans  :         46. kBytes
   grid      :        285. kBytes
   one-center:         62. kBytes
   wavefun   :       1769. kBytes
 
  
  
 General timing and accounting informations for this job:
 ========================================================
  
                  Total CPU time used (sec):       55.350
                            User time (sec):       52.474
                          System time (sec):        2.876
                         Elapsed time (sec):       56.013
  
                   Maximum memory used (kb):       81956.
                   Average memory used (kb):           0.
  
                          Minor page faults:      1101882
                          Major page faults:            0
                 Voluntary context switches:         6564
