 vasp.5.4.1 24Jun15 (build May 02 2016 14:41:14) complex                        
  
 executed on           IFC91_ompi date 2025.11.12  12:10:57
 running on   32 total cores
 distrk:  each k-point on   32 cores,    1 groups
 distr:  one band on NCORES_PER_BAND=   1 cores,   32 groups


--------------------------------------------------------------------------------------------------------


 INCAR:
 POTCAR:    PAW_PBE Fe 06Sep2000                  

 ----------------------------------------------------------------------------- 
|                                                                             |
|           W    W    AA    RRRRR   N    N  II  N    N   GGGG   !!!           |
|           W    W   A  A   R    R  NN   N  II  NN   N  G    G  !!!           |
|           W    W  A    A  R    R  N N  N  II  N N  N  G       !!!           |
|           W WW W  AAAAAA  RRRRR   N  N N  II  N  N N  G  GGG   !            |
|           WW  WW  A    A  R   R   N   NN  II  N   NN  G    G                |
|           W    W  A    A  R    R  N    N  II  N    N   GGGG   !!!           |
|                                                                             |
|      For optimal performance we recommend to set                            |
|        NCORE= 4 - approx SQRT( number of cores)                             |
|      NCORE specifies how many cores store one orbital (NPAR=cpu/NCORE).     |
|      This setting can  greatly improve the performance of VASP for DFT.     |
|      The default, NPAR=number of cores might be grossly inefficient         |
|      on modern multi-core architectures or massively parallel machines.     |
|      Do your own testing !!!!                                               |
|      Unfortunately you need to use the default for GW and RPA calculations. |
|      (for HF NCORE is supported but not extensively tested yet)             |
|                                                                             |
 ----------------------------------------------------------------------------- 

 POTCAR:    PAW_PBE Fe 06Sep2000                  
   VRHFIN =Fe:  d7 s1                                                           
   LEXCH  = PE                                                                  
   EATOM  =   594.3153 eV,   43.6809 Ry                                         
                                                                                
   TITEL  = PAW_PBE Fe 06Sep2000                                                
   LULTRA =        F    use ultrasoft PP ?                                      
   IUNSCR =        1    unscreen: 0-lin 1-nonlin 2-no                           
   RPACOR =    2.000    partial core radius                                     
   POMASS =   55.847; ZVAL   =    8.000    mass and valenz                      
   RCORE  =    2.300    outmost cutoff radius                                   
   RWIGS  =    2.460; RWIGS  =    1.302    wigner-seitz radius (au A)           
   ENMAX  =  267.882; ENMIN  =  200.911 eV                                      
   RCLOC  =    1.701    cutoff for local pot                                    
   LCOR   =        T    correct aug charges                                     
   LPAW   =        T    paw PP                                                  
   EAUG   =  511.368                                                            
   DEXC   =    0.000                                                            
   RMAX   =    2.356    core radius for proj-oper                               
   RAUG   =    1.300    factor for augmentation sphere                          
   RDEP   =    2.442    radius for radial grids                                 
   RDEPT  =    1.890    core radius for aug-charge                              
                                                                                
   Atomic configuration                                                         
    9 entries                                                                   
     n  l   j            E        occ.                                          
     1  0  0.50     -6993.8440   2.0000                                         
     2  0  0.50      -814.6047   2.0000                                         
     2  1  1.50      -693.3689   6.0000                                         
     3  0  0.50       -89.4732   2.0000                                         
     3  1  1.50       -55.6373   6.0000                                         
     3  2  2.50        -3.8151   7.0000                                         
     4  0  0.50        -4.2551   1.0000                                         
     4  1  1.50        -3.4015   0.0000                                         
     4  3  2.50        -1.3606   0.0000                                         
   Description                                                                  
     l       E           TYP  RCUT    TYP  RCUT                                 
     2     -3.8151135     23  2.300                                             
     2     -5.1756961     23  2.300                                             
     0     -4.2550963     23  2.300                                             
     0      7.2035603     23  2.300                                             
     1     -2.7211652     23  2.300                                             
     1     18.4316424     23  2.300                                             
  local pseudopotential read in
  partial core-charges read in
  partial kinetic energy density read in
  atomic valenz-charges read in
  non local Contribution for L=           2  read in
    real space projection operators read in
  non local Contribution for L=           2  read in
    real space projection operators read in
  non local Contribution for L=           0  read in
    real space projection operators read in
  non local Contribution for L=           0  read in
    real space projection operators read in
  non local Contribution for L=           1  read in
    real space projection operators read in
  non local Contribution for L=           1  read in
    real space projection operators read in
    PAW grid and wavefunctions read in
 
   number of l-projection  operators is LMAX  =           6
   number of lm-projection operators is LMMAX =          18
 
  PAW_PBE Fe 06Sep2000                  :
 energy of atom  1       EATOM= -594.3153
 kinetic energy error for atom=    0.0269 (will be added to EATOM!!)
 
 
 POSCAR: BCC Fe                                  
  positions in cartesian coordinates
  No initial velocities read in
 exchange correlation table for  LEXCH =        8
   RHO(1)=    0.500       N(1)  =     2000
   RHO(2)=  100.500       N(2)  =     4000
 


--------------------------------------------------------------------------------------------------------


 ion  position               nearest neighbor table
   1  0.000  0.000  0.000-   2 2.48   2 2.48   2 2.48   2 2.48   2 2.48   2 2.48   2 2.48   2 2.48

   2  0.500  0.500  0.500-   1 2.48   1 2.48   1 2.48   1 2.48   1 2.48   1 2.48   1 2.48   1 2.48

 

IMPORTANT INFORMATION: All symmetrisations will be switched off!
NOSYMM: (Re-)initialisation of all symmetry stuff for point group C_1.

 
 
 KPOINTS: Automatic mesh                          

Automatic generation of k-mesh.
Space group operators:
 irot       det(A)        alpha          n_x          n_y          n_z        tau_x        tau_y        tau_z
    1     1.000000     0.000001     1.000000     0.000000     0.000000     0.000000     0.000000     0.000000
 
 Subroutine IBZKPT returns following result:
 ===========================================
 
 Found    108 irreducible k-points:
 
 Following reciprocal coordinates:
            Coordinates               Weight
  0.083333  0.083333  0.083333      2.000000
  0.250000  0.083333  0.083333      2.000000
  0.416667  0.083333  0.083333      2.000000
 -0.416667  0.083333  0.083333      2.000000
 -0.250000  0.083333  0.083333      2.000000
 -0.083333  0.083333  0.083333      2.000000
  0.083333  0.250000  0.083333      2.000000
  0.250000  0.250000  0.083333      2.000000
  0.416667  0.250000  0.083333      2.000000
 -0.416667  0.250000  0.083333      2.000000
 -0.250000  0.250000  0.083333      2.000000
 -0.083333  0.250000  0.083333      2.000000
  0.083333  0.416667  0.083333      2.000000
  0.250000  0.416667  0.083333      2.000000
  0.416667  0.416667  0.083333      2.000000
 -0.416667  0.416667  0.083333      2.000000
 -0.250000  0.416667  0.083333      2.000000
 -0.083333  0.416667  0.083333      2.000000
  0.083333 -0.416667  0.083333      2.000000
  0.250000 -0.416667  0.083333      2.000000
  0.416667 -0.416667  0.083333      2.000000
 -0.416667 -0.416667  0.083333      2.000000
 -0.250000 -0.416667  0.083333      2.000000
 -0.083333 -0.416667  0.083333      2.000000
  0.083333 -0.250000  0.083333      2.000000
  0.250000 -0.250000  0.083333      2.000000
  0.416667 -0.250000  0.083333      2.000000
 -0.416667 -0.250000  0.083333      2.000000
 -0.250000 -0.250000  0.083333      2.000000
 -0.083333 -0.250000  0.083333      2.000000
  0.083333 -0.083333  0.083333      2.000000
  0.250000 -0.083333  0.083333      2.000000
  0.416667 -0.083333  0.083333      2.000000
 -0.416667 -0.083333  0.083333      2.000000
 -0.250000 -0.083333  0.083333      2.000000
 -0.083333 -0.083333  0.083333      2.000000
  0.083333  0.083333  0.250000      2.000000
  0.250000  0.083333  0.250000      2.000000
  0.416667  0.083333  0.250000      2.000000
 -0.416667  0.083333  0.250000      2.000000
 -0.250000  0.083333  0.250000      2.000000
 -0.083333  0.083333  0.250000      2.000000
  0.083333  0.250000  0.250000      2.000000
  0.250000  0.250000  0.250000      2.000000
  0.416667  0.250000  0.250000      2.000000
 -0.416667  0.250000  0.250000      2.000000
 -0.250000  0.250000  0.250000      2.000000
 -0.083333  0.250000  0.250000      2.000000
  0.083333  0.416667  0.250000      2.000000
  0.250000  0.416667  0.250000      2.000000
  0.416667  0.416667  0.250000      2.000000
 -0.416667  0.416667  0.250000      2.000000
 -0.250000  0.416667  0.250000      2.000000
 -0.083333  0.416667  0.250000      2.000000
  0.083333 -0.416667  0.250000      2.000000
  0.250000 -0.416667  0.250000      2.000000
  0.416667 -0.416667  0.250000      2.000000
 -0.416667 -0.416667  0.250000      2.000000
 -0.250000 -0.416667  0.250000      2.000000
 -0.083333 -0.416667  0.250000      2.000000
  0.083333 -0.250000  0.250000      2.000000
  0.250000 -0.250000  0.250000      2.000000
  0.416667 -0.250000  0.250000      2.000000
 -0.416667 -0.250000  0.250000      2.000000
 -0.250000 -0.250000  0.250000      2.000000
 -0.083333 -0.250000  0.250000      2.000000
  0.083333 -0.083333  0.250000      2.000000
  0.250000 -0.083333  0.250000      2.000000
  0.416667 -0.083333  0.250000      2.000000
 -0.416667 -0.083333  0.250000      2.000000
 -0.250000 -0.083333  0.250000      2.000000
 -0.083333 -0.083333  0.250000      2.000000
  0.083333  0.083333  0.416667      2.000000
  0.250000  0.083333  0.416667      2.000000
  0.416667  0.083333  0.416667      2.000000
 -0.416667  0.083333  0.416667      2.000000
 -0.250000  0.083333  0.416667      2.000000
 -0.083333  0.083333  0.416667      2.000000
  0.083333  0.250000  0.416667      2.000000
  0.250000  0.250000  0.416667      2.000000
  0.416667  0.250000  0.416667      2.000000
 -0.416667  0.250000  0.416667      2.000000
 -0.250000  0.250000  0.416667      2.000000
 -0.083333  0.250000  0.416667      2.000000
  0.083333  0.416667  0.416667      2.000000
  0.250000  0.416667  0.416667      2.000000
  0.416667  0.416667  0.416667      2.000000
 -0.416667  0.416667  0.416667      2.000000
 -0.250000  0.416667  0.416667      2.000000
 -0.083333  0.416667  0.416667      2.000000
  0.083333 -0.416667  0.416667      2.000000
  0.250000 -0.416667  0.416667      2.000000
  0.416667 -0.416667  0.416667      2.000000
 -0.416667 -0.416667  0.416667      2.000000
 -0.250000 -0.416667  0.416667      2.000000
 -0.083333 -0.416667  0.416667      2.000000
  0.083333 -0.250000  0.416667      2.000000
  0.250000 -0.250000  0.416667      2.000000
  0.416667 -0.250000  0.416667      2.000000
 -0.416667 -0.250000  0.416667      2.000000
 -0.250000 -0.250000  0.416667      2.000000
 -0.083333 -0.250000  0.416667      2.000000
  0.083333 -0.083333  0.416667      2.000000
  0.250000 -0.083333  0.416667      2.000000
  0.416667 -0.083333  0.416667      2.000000
 -0.416667 -0.083333  0.416667      2.000000
 -0.250000 -0.083333  0.416667      2.000000
 -0.083333 -0.083333  0.416667      2.000000
 
 Following cartesian coordinates:
            Coordinates               Weight
  0.083333  0.083333  0.083333      2.000000
  0.250000  0.083333  0.083333      2.000000
  0.416667  0.083333  0.083333      2.000000
 -0.416667  0.083333  0.083333      2.000000
 -0.250000  0.083333  0.083333      2.000000
 -0.083333  0.083333  0.083333      2.000000
  0.083333  0.250000  0.083333      2.000000
  0.250000  0.250000  0.083333      2.000000
  0.416667  0.250000  0.083333      2.000000
 -0.416667  0.250000  0.083333      2.000000
 -0.250000  0.250000  0.083333      2.000000
 -0.083333  0.250000  0.083333      2.000000
  0.083333  0.416667  0.083333      2.000000
  0.250000  0.416667  0.083333      2.000000
  0.416667  0.416667  0.083333      2.000000
 -0.416667  0.416667  0.083333      2.000000
 -0.250000  0.416667  0.083333      2.000000
 -0.083333  0.416667  0.083333      2.000000
  0.083333 -0.416667  0.083333      2.000000
  0.250000 -0.416667  0.083333      2.000000
  0.416667 -0.416667  0.083333      2.000000
 -0.416667 -0.416667  0.083333      2.000000
 -0.250000 -0.416667  0.083333      2.000000
 -0.083333 -0.416667  0.083333      2.000000
  0.083333 -0.250000  0.083333      2.000000
  0.250000 -0.250000  0.083333      2.000000
  0.416667 -0.250000  0.083333      2.000000
 -0.416667 -0.250000  0.083333      2.000000
 -0.250000 -0.250000  0.083333      2.000000
 -0.083333 -0.250000  0.083333      2.000000
  0.083333 -0.083333  0.083333      2.000000
  0.250000 -0.083333  0.083333      2.000000
  0.416667 -0.083333  0.083333      2.000000
 -0.416667 -0.083333  0.083333      2.000000
 -0.250000 -0.083333  0.083333      2.000000
 -0.083333 -0.083333  0.083333      2.000000
  0.083333  0.083333  0.250000      2.000000
  0.250000  0.083333  0.250000      2.000000
  0.416667  0.083333  0.250000      2.000000
 -0.416667  0.083333  0.250000      2.000000
 -0.250000  0.083333  0.250000      2.000000
 -0.083333  0.083333  0.250000      2.000000
  0.083333  0.250000  0.250000      2.000000
  0.250000  0.250000  0.250000      2.000000
  0.416667  0.250000  0.250000      2.000000
 -0.416667  0.250000  0.250000      2.000000
 -0.250000  0.250000  0.250000      2.000000
 -0.083333  0.250000  0.250000      2.000000
  0.083333  0.416667  0.250000      2.000000
  0.250000  0.416667  0.250000      2.000000
  0.416667  0.416667  0.250000      2.000000
 -0.416667  0.416667  0.250000      2.000000
 -0.250000  0.416667  0.250000      2.000000
 -0.083333  0.416667  0.250000      2.000000
  0.083333 -0.416667  0.250000      2.000000
  0.250000 -0.416667  0.250000      2.000000
  0.416667 -0.416667  0.250000      2.000000
 -0.416667 -0.416667  0.250000      2.000000
 -0.250000 -0.416667  0.250000      2.000000
 -0.083333 -0.416667  0.250000      2.000000
  0.083333 -0.250000  0.250000      2.000000
  0.250000 -0.250000  0.250000      2.000000
  0.416667 -0.250000  0.250000      2.000000
 -0.416667 -0.250000  0.250000      2.000000
 -0.250000 -0.250000  0.250000      2.000000
 -0.083333 -0.250000  0.250000      2.000000
  0.083333 -0.083333  0.250000      2.000000
  0.250000 -0.083333  0.250000      2.000000
  0.416667 -0.083333  0.250000      2.000000
 -0.416667 -0.083333  0.250000      2.000000
 -0.250000 -0.083333  0.250000      2.000000
 -0.083333 -0.083333  0.250000      2.000000
  0.083333  0.083333  0.416667      2.000000
  0.250000  0.083333  0.416667      2.000000
  0.416667  0.083333  0.416667      2.000000
 -0.416667  0.083333  0.416667      2.000000
 -0.250000  0.083333  0.416667      2.000000
 -0.083333  0.083333  0.416667      2.000000
  0.083333  0.250000  0.416667      2.000000
  0.250000  0.250000  0.416667      2.000000
  0.416667  0.250000  0.416667      2.000000
 -0.416667  0.250000  0.416667      2.000000
 -0.250000  0.250000  0.416667      2.000000
 -0.083333  0.250000  0.416667      2.000000
  0.083333  0.416667  0.416667      2.000000
  0.250000  0.416667  0.416667      2.000000
  0.416667  0.416667  0.416667      2.000000
 -0.416667  0.416667  0.416667      2.000000
 -0.250000  0.416667  0.416667      2.000000
 -0.083333  0.416667  0.416667      2.000000
  0.083333 -0.416667  0.416667      2.000000
  0.250000 -0.416667  0.416667      2.000000
  0.416667 -0.416667  0.416667      2.000000
 -0.416667 -0.416667  0.416667      2.000000
 -0.250000 -0.416667  0.416667      2.000000
 -0.083333 -0.416667  0.416667      2.000000
  0.083333 -0.250000  0.416667      2.000000
  0.250000 -0.250000  0.416667      2.000000
  0.416667 -0.250000  0.416667      2.000000
 -0.416667 -0.250000  0.416667      2.000000
 -0.250000 -0.250000  0.416667      2.000000
 -0.083333 -0.250000  0.416667      2.000000
  0.083333 -0.083333  0.416667      2.000000
  0.250000 -0.083333  0.416667      2.000000
  0.416667 -0.083333  0.416667      2.000000
 -0.416667 -0.083333  0.416667      2.000000
 -0.250000 -0.083333  0.416667      2.000000
 -0.083333 -0.083333  0.416667      2.000000
 


--------------------------------------------------------------------------------------------------------




 Dimension of arrays:
   k-points           NKPTS =    108   k-points in BZ     NKDIM =    108   number of bands    NBANDS=     32
   number of dos      NEDOS =    301   number of ions     NIONS =      2
   non local maximal  LDIM  =      6   non local SUM 2l+1 LMDIM =     18
   total plane-waves  NPLWV =   1728
   max r-space proj   IRMAX =      1   max aug-charges    IRDMAX=   2830
   dimension x,y,z NGX =    12 NGY =   12 NGZ =   12
   dimension x,y,z NGXF=    24 NGYF=   24 NGZF=   24
   support grid    NGXF=    24 NGYF=   24 NGZF=   24
   ions per type =               2
 NGX,Y,Z   is equivalent  to a cutoff of   6.98,  6.98,  6.98 a.u.
 NGXF,Y,Z  is equivalent  to a cutoff of  13.95, 13.95, 13.95 a.u.


 I would recommend the setting:
   dimension x,y,z NGX =    12 NGY =   12 NGZ =   12
 SYSTEM =  Fe Bulk                                 
 POSCAR =  BCC Fe                                  

 Startparameter for this run:
   NWRITE =      2    write-flag & timer
   PREC   = normal    normal or accurate (medium, high low for compatibility)
   ISTART =      0    job   : 0-new  1-cont  2-samecut
   ICHARG =      2    charge: 1-file 2-atom 10-const
   ISPIN  =      2    spin polarized calculation?
   LNONCOLLINEAR =      F non collinear calculations
   LSORBIT =      F    spin-orbit coupling
   INIWAV =      1    electr: 0-lowe 1-rand  2-diag
   LASPH  =      F    aspherical Exc in radial PAW
   METAGGA=      F    non-selfconsistent MetaGGA calc.

 Electronic Relaxation 1
   ENCUT  =  300.0 eV  22.05 Ry    4.70 a.u.   4.04  4.04  4.04*2*pi/ulx,y,z
   ENINI  =  300.0     initial cutoff
   ENAUG  =  511.4 eV  augmentation charge cutoff
   NELM   =     60;   NELMIN=  6; NELMDL= -5     # of ELM steps 
   EDIFF  = 0.1E-04   stopping-criterion for ELM
   LREAL  =      F    real-space projection
   NLSPLINE    = F    spline interpolate recip. space projectors
   LCOMPAT=      F    compatible to vasp.4.4
   GGA_COMPAT  = T    GGA compatible to vasp.4.4-vasp.4.6
   LMAXPAW     = -100 max onsite density
   LMAXMIX     =    2 max onsite mixed and CHGCAR
   VOSKOWN=      0    Vosko Wilk Nusair interpolation
   ROPT   =    0.00000
 Ionic relaxation
   EDIFFG = -.1E-01   stopping-criterion for IOM
   NSW    =     20    number of steps for IOM
   NBLOCK =      1;   KBLOCK =     20    inner block; outer block 
   IBRION =      2    ionic relax: 0-MD 1-quasi-New 2-CG
   NFREE  =      1    steps in history (QN), initial steepest desc. (CG)
   ISIF   =      2    stress and relaxation
   IWAVPR =     11    prediction:  0-non 1-charg 2-wave 3-comb
   ISYM   =      0    0-nonsym 1-usesym 2-fastsym
   LCORR  =      T    Harris-Foulkes like correction to forces

   POTIM  = 0.5000    time-step for ionic-motion
   TEIN   =    0.0    initial temperature
   TEBEG  =    0.0;   TEEND  =   0.0 temperature during run
   SMASS  =  -3.00    Nose mass-parameter (am)
   estimated Nose-frequenzy (Omega)   =  0.10E-29 period in steps =****** mass=  -0.187E-27a.u.
   SCALEE = 1.0000    scale energy and forces
   NPACO  =    256;   APACO  = 16.0  distance and # of slots for P.C.
   PSTRESS=    0.0 pullay stress

  Mass of Ions in am
   POMASS =  55.85
  Ionic Valenz
   ZVAL   =   8.00
  Atomic Wigner-Seitz radii
   RWIGS  =  -1.00
  virtual crystal weights 
   VCA    =   1.00
   NELECT =      16.0000    total number of electrons
   NUPDOWN=      -1.0000    fix difference up-down

 DOS related values:
   EMIN   =  10.00;   EMAX   =-10.00  energy-range for DOS
   EFERMI =   0.00
   ISMEAR =     1;   SIGMA  =   0.20  broadening in eV -4-tet -1-fermi 0-gaus

 Electronic relaxation 2 (details)
   IALGO  =     38    algorithm
   LDIAG  =      T    sub-space diagonalisation (order eigenvalues)
   LSUBROT=      F    optimize rotation matrix (better conditioning)
   TURBO    =      0    0=normal 1=particle mesh
   IRESTART =      0    0=no restart 2=restart with 2 vectors
   NREBOOT  =      0    no. of reboots
   NMIN     =      0    reboot dimension
   EREF     =   0.00    reference energy to select bands
   IMIX   =      4    mixing-type and parameters
     AMIX     =   0.40;   BMIX     =  1.00
     AMIX_MAG =   1.60;   BMIX_MAG =  1.00
     AMIN     =   0.10
     WC   =   100.;   INIMIX=   1;  MIXPRE=   1;  MAXMIX=  40

 Intra band minimization:
   WEIMIN = 0.0010     energy-eigenvalue tresh-hold
   EBREAK =  0.78E-07  absolut break condition
   DEPER  =   0.30     relativ break condition  

   TIME   =   0.40     timestep for ELM

  volume/ion in A,a.u.               =      11.70        78.93
  Fermi-wavevector in a.u.,A,eV,Ry     =   1.442388  2.725718 28.306695  2.080483
  Thomas-Fermi vector in A             =   2.560914
 
 Write flags
   LWAVE  =      F    write WAVECAR
   LCHARG =      F    write CHGCAR
   LVTOT  =      F    write LOCPOT, total local potential
   LVHAR  =      F    write LOCPOT, Hartree potential only
   LELF   =      F    write electronic localiz. function (ELF)
   LORBIT =      0    0 simple, 1 ext, 2 COOP (PROOUT)


 Dipole corrections
   LMONO  =      F    monopole corrections only (constant potential shift)
   LDIPOL =      F    correct potential (dipole corrections)
   IDIPOL =      0    1-x, 2-y, 3-z, 4-all directions 
   EPSILON=  1.0000000 bulk dielectric constant

 Exchange correlation treatment:
   GGA     =    PE    GGA type
   LEXCH   =     8    internal setting for exchange type
   VOSKOWN=      0    Vosko Wilk Nusair interpolation
   LHFCALC =     F    Hartree Fock is set to
   LHFONE  =     F    Hartree Fock one center treatment
   AEXX    =    0.0000 exact exchange contribution

 Linear response parameters
   LEPSILON=     F    determine dielectric tensor
   LRPA    =     F    only Hartree local field effects (RPA)
   LNABLA  =     F    use nabla operator in PAW spheres
   LVEL    =     F    velocity operator in full k-point grid
   LINTERFAST=   F  fast interpolation
   KINTER  =     0    interpolate to denser k-point grid
   CSHIFT  =0.1000    complex shift for real part using Kramers Kronig
   OMEGAMAX=  -1.0    maximum frequency
   DEG_THRESHOLD= 0.2000000E-02 threshold for treating states as degnerate
   RTIME   =    0.100 relaxation time in fs

 Orbital magnetization related:
   ORBITALMAG=     F  switch on orbital magnetization
   LCHIMAG   =     F  perturbation theory with respect to B field
   DQ        =  0.001000  dq finite difference perturbation B field



--------------------------------------------------------------------------------------------------------


 conjugate gradient relaxation of ions
 charge density and potential will be updated during run
 spin polarized calculation
 Variant of blocked Davidson
 Davidson routine will perform the subspace rotation
 perform sub-space diagonalisation
    after iterative eigenvector-optimisation
 modified Broyden-mixing scheme, WC =      100.0
 initial mixing is a Kerker type mixing with AMIX =  0.4000 and BMIX =      1.0000
 Hartree-type preconditioning will be used
 using additional bands           24
 reciprocal scheme for non local part
 use partial core corrections
 calculate Harris-corrections to forces 
   (improved forces if not selfconsistent)
 use gradient corrections 
 use of overlap-Matrix (Vanderbilt PP)
 Methfessel and Paxton  Order N= 1 SIGMA  =   0.20


--------------------------------------------------------------------------------------------------------


  energy-cutoff  :      300.00
  volume of cell :       23.39
      direct lattice vectors                 reciprocal lattice vectors
     2.860000000  0.000000000  0.000000000     0.349650350  0.000000000  0.000000000
     0.000000000  2.860000000  0.000000000     0.000000000  0.349650350  0.000000000
     0.000000000  0.000000000  2.860000000     0.000000000  0.000000000  0.349650350

  length of vectors
     2.860000000  2.860000000  2.860000000     0.349650350  0.349650350  0.349650350


 
 k-points in units of 2pi/SCALE and weight: Automatic mesh                          
   0.08333333  0.08333333  0.08333333       0.009
   0.25000000  0.08333333  0.08333333       0.009
   0.41666667  0.08333333  0.08333333       0.009
  -0.41666667  0.08333333  0.08333333       0.009
  -0.25000000  0.08333333  0.08333333       0.009
  -0.08333333  0.08333333  0.08333333       0.009
   0.08333333  0.25000000  0.08333333       0.009
   0.25000000  0.25000000  0.08333333       0.009
   0.41666667  0.25000000  0.08333333       0.009
  -0.41666667  0.25000000  0.08333333       0.009
  -0.25000000  0.25000000  0.08333333       0.009
  -0.08333333  0.25000000  0.08333333       0.009
   0.08333333  0.41666667  0.08333333       0.009
   0.25000000  0.41666667  0.08333333       0.009
   0.41666667  0.41666667  0.08333333       0.009
  -0.41666667  0.41666667  0.08333333       0.009
  -0.25000000  0.41666667  0.08333333       0.009
  -0.08333333  0.41666667  0.08333333       0.009
   0.08333333 -0.41666667  0.08333333       0.009
   0.25000000 -0.41666667  0.08333333       0.009
   0.41666667 -0.41666667  0.08333333       0.009
  -0.41666667 -0.41666667  0.08333333       0.009
  -0.25000000 -0.41666667  0.08333333       0.009
  -0.08333333 -0.41666667  0.08333333       0.009
   0.08333333 -0.25000000  0.08333333       0.009
   0.25000000 -0.25000000  0.08333333       0.009
   0.41666667 -0.25000000  0.08333333       0.009
  -0.41666667 -0.25000000  0.08333333       0.009
  -0.25000000 -0.25000000  0.08333333       0.009
  -0.08333333 -0.25000000  0.08333333       0.009
   0.08333333 -0.08333333  0.08333333       0.009
   0.25000000 -0.08333333  0.08333333       0.009
   0.41666667 -0.08333333  0.08333333       0.009
  -0.41666667 -0.08333333  0.08333333       0.009
  -0.25000000 -0.08333333  0.08333333       0.009
  -0.08333333 -0.08333333  0.08333333       0.009
   0.08333333  0.08333333  0.25000000       0.009
   0.25000000  0.08333333  0.25000000       0.009
   0.41666667  0.08333333  0.25000000       0.009
  -0.41666667  0.08333333  0.25000000       0.009
  -0.25000000  0.08333333  0.25000000       0.009
  -0.08333333  0.08333333  0.25000000       0.009
   0.08333333  0.25000000  0.25000000       0.009
   0.25000000  0.25000000  0.25000000       0.009
   0.41666667  0.25000000  0.25000000       0.009
  -0.41666667  0.25000000  0.25000000       0.009
  -0.25000000  0.25000000  0.25000000       0.009
  -0.08333333  0.25000000  0.25000000       0.009
   0.08333333  0.41666667  0.25000000       0.009
   0.25000000  0.41666667  0.25000000       0.009
   0.41666667  0.41666667  0.25000000       0.009
  -0.41666667  0.41666667  0.25000000       0.009
  -0.25000000  0.41666667  0.25000000       0.009
  -0.08333333  0.41666667  0.25000000       0.009
   0.08333333 -0.41666667  0.25000000       0.009
   0.25000000 -0.41666667  0.25000000       0.009
   0.41666667 -0.41666667  0.25000000       0.009
  -0.41666667 -0.41666667  0.25000000       0.009
  -0.25000000 -0.41666667  0.25000000       0.009
  -0.08333333 -0.41666667  0.25000000       0.009
   0.08333333 -0.25000000  0.25000000       0.009
   0.25000000 -0.25000000  0.25000000       0.009
   0.41666667 -0.25000000  0.25000000       0.009
  -0.41666667 -0.25000000  0.25000000       0.009
  -0.25000000 -0.25000000  0.25000000       0.009
  -0.08333333 -0.25000000  0.25000000       0.009
   0.08333333 -0.08333333  0.25000000       0.009
   0.25000000 -0.08333333  0.25000000       0.009
   0.41666667 -0.08333333  0.25000000       0.009
  -0.41666667 -0.08333333  0.25000000       0.009
  -0.25000000 -0.08333333  0.25000000       0.009
  -0.08333333 -0.08333333  0.25000000       0.009
   0.08333333  0.08333333  0.41666667       0.009
   0.25000000  0.08333333  0.41666667       0.009
   0.41666667  0.08333333  0.41666667       0.009
  -0.41666667  0.08333333  0.41666667       0.009
  -0.25000000  0.08333333  0.41666667       0.009
  -0.08333333  0.08333333  0.41666667       0.009
   0.08333333  0.25000000  0.41666667       0.009
   0.25000000  0.25000000  0.41666667       0.009
   0.41666667  0.25000000  0.41666667       0.009
  -0.41666667  0.25000000  0.41666667       0.009
  -0.25000000  0.25000000  0.41666667       0.009
  -0.08333333  0.25000000  0.41666667       0.009
   0.08333333  0.41666667  0.41666667       0.009
   0.25000000  0.41666667  0.41666667       0.009
   0.41666667  0.41666667  0.41666667       0.009
  -0.41666667  0.41666667  0.41666667       0.009
  -0.25000000  0.41666667  0.41666667       0.009
  -0.08333333  0.41666667  0.41666667       0.009
   0.08333333 -0.41666667  0.41666667       0.009
   0.25000000 -0.41666667  0.41666667       0.009
   0.41666667 -0.41666667  0.41666667       0.009
  -0.41666667 -0.41666667  0.41666667       0.009
  -0.25000000 -0.41666667  0.41666667       0.009
  -0.08333333 -0.41666667  0.41666667       0.009
   0.08333333 -0.25000000  0.41666667       0.009
   0.25000000 -0.25000000  0.41666667       0.009
   0.41666667 -0.25000000  0.41666667       0.009
  -0.41666667 -0.25000000  0.41666667       0.009
  -0.25000000 -0.25000000  0.41666667       0.009
  -0.08333333 -0.25000000  0.41666667       0.009
   0.08333333 -0.08333333  0.41666667       0.009
   0.25000000 -0.08333333  0.41666667       0.009
   0.41666667 -0.08333333  0.41666667       0.009
  -0.41666667 -0.08333333  0.41666667       0.009
  -0.25000000 -0.08333333  0.41666667       0.009
  -0.08333333 -0.08333333  0.41666667       0.009
 
 k-points in reciprocal lattice and weights: Automatic mesh                          
   0.08333333  0.08333333  0.08333333       0.009
   0.25000000  0.08333333  0.08333333       0.009
   0.41666667  0.08333333  0.08333333       0.009
  -0.41666667  0.08333333  0.08333333       0.009
  -0.25000000  0.08333333  0.08333333       0.009
  -0.08333333  0.08333333  0.08333333       0.009
   0.08333333  0.25000000  0.08333333       0.009
   0.25000000  0.25000000  0.08333333       0.009
   0.41666667  0.25000000  0.08333333       0.009
  -0.41666667  0.25000000  0.08333333       0.009
  -0.25000000  0.25000000  0.08333333       0.009
  -0.08333333  0.25000000  0.08333333       0.009
   0.08333333  0.41666667  0.08333333       0.009
   0.25000000  0.41666667  0.08333333       0.009
   0.41666667  0.41666667  0.08333333       0.009
  -0.41666667  0.41666667  0.08333333       0.009
  -0.25000000  0.41666667  0.08333333       0.009
  -0.08333333  0.41666667  0.08333333       0.009
   0.08333333 -0.41666667  0.08333333       0.009
   0.25000000 -0.41666667  0.08333333       0.009
   0.41666667 -0.41666667  0.08333333       0.009
  -0.41666667 -0.41666667  0.08333333       0.009
  -0.25000000 -0.41666667  0.08333333       0.009
  -0.08333333 -0.41666667  0.08333333       0.009
   0.08333333 -0.25000000  0.08333333       0.009
   0.25000000 -0.25000000  0.08333333       0.009
   0.41666667 -0.25000000  0.08333333       0.009
  -0.41666667 -0.25000000  0.08333333       0.009
  -0.25000000 -0.25000000  0.08333333       0.009
  -0.08333333 -0.25000000  0.08333333       0.009
   0.08333333 -0.08333333  0.08333333       0.009
   0.25000000 -0.08333333  0.08333333       0.009
   0.41666667 -0.08333333  0.08333333       0.009
  -0.41666667 -0.08333333  0.08333333       0.009
  -0.25000000 -0.08333333  0.08333333       0.009
  -0.08333333 -0.08333333  0.08333333       0.009
   0.08333333  0.08333333  0.25000000       0.009
   0.25000000  0.08333333  0.25000000       0.009
   0.41666667  0.08333333  0.25000000       0.009
  -0.41666667  0.08333333  0.25000000       0.009
  -0.25000000  0.08333333  0.25000000       0.009
  -0.08333333  0.08333333  0.25000000       0.009
   0.08333333  0.25000000  0.25000000       0.009
   0.25000000  0.25000000  0.25000000       0.009
   0.41666667  0.25000000  0.25000000       0.009
  -0.41666667  0.25000000  0.25000000       0.009
  -0.25000000  0.25000000  0.25000000       0.009
  -0.08333333  0.25000000  0.25000000       0.009
   0.08333333  0.41666667  0.25000000       0.009
   0.25000000  0.41666667  0.25000000       0.009
   0.41666667  0.41666667  0.25000000       0.009
  -0.41666667  0.41666667  0.25000000       0.009
  -0.25000000  0.41666667  0.25000000       0.009
  -0.08333333  0.41666667  0.25000000       0.009
   0.08333333 -0.41666667  0.25000000       0.009
   0.25000000 -0.41666667  0.25000000       0.009
   0.41666667 -0.41666667  0.25000000       0.009
  -0.41666667 -0.41666667  0.25000000       0.009
  -0.25000000 -0.41666667  0.25000000       0.009
  -0.08333333 -0.41666667  0.25000000       0.009
   0.08333333 -0.25000000  0.25000000       0.009
   0.25000000 -0.25000000  0.25000000       0.009
   0.41666667 -0.25000000  0.25000000       0.009
  -0.41666667 -0.25000000  0.25000000       0.009
  -0.25000000 -0.25000000  0.25000000       0.009
  -0.08333333 -0.25000000  0.25000000       0.009
   0.08333333 -0.08333333  0.25000000       0.009
   0.25000000 -0.08333333  0.25000000       0.009
   0.41666667 -0.08333333  0.25000000       0.009
  -0.41666667 -0.08333333  0.25000000       0.009
  -0.25000000 -0.08333333  0.25000000       0.009
  -0.08333333 -0.08333333  0.25000000       0.009
   0.08333333  0.08333333  0.41666667       0.009
   0.25000000  0.08333333  0.41666667       0.009
   0.41666667  0.08333333  0.41666667       0.009
  -0.41666667  0.08333333  0.41666667       0.009
  -0.25000000  0.08333333  0.41666667       0.009
  -0.08333333  0.08333333  0.41666667       0.009
   0.08333333  0.25000000  0.41666667       0.009
   0.25000000  0.25000000  0.41666667       0.009
   0.41666667  0.25000000  0.41666667       0.009
  -0.41666667  0.25000000  0.41666667       0.009
  -0.25000000  0.25000000  0.41666667       0.009
  -0.08333333  0.25000000  0.41666667       0.009
   0.08333333  0.41666667  0.41666667       0.009
   0.25000000  0.41666667  0.41666667       0.009
   0.41666667  0.41666667  0.41666667       0.009
  -0.41666667  0.41666667  0.41666667       0.009
  -0.25000000  0.41666667  0.41666667       0.009
  -0.08333333  0.41666667  0.41666667       0.009
   0.08333333 -0.41666667  0.41666667       0.009
   0.25000000 -0.41666667  0.41666667       0.009
   0.41666667 -0.41666667  0.41666667       0.009
  -0.41666667 -0.41666667  0.41666667       0.009
  -0.25000000 -0.41666667  0.41666667       0.009
  -0.08333333 -0.41666667  0.41666667       0.009
   0.08333333 -0.25000000  0.41666667       0.009
   0.25000000 -0.25000000  0.41666667       0.009
   0.41666667 -0.25000000  0.41666667       0.009
  -0.41666667 -0.25000000  0.41666667       0.009
  -0.25000000 -0.25000000  0.41666667       0.009
  -0.08333333 -0.25000000  0.41666667       0.009
   0.08333333 -0.08333333  0.41666667       0.009
   0.25000000 -0.08333333  0.41666667       0.009
   0.41666667 -0.08333333  0.41666667       0.009
  -0.41666667 -0.08333333  0.41666667       0.009
  -0.25000000 -0.08333333  0.41666667       0.009
  -0.08333333 -0.08333333  0.41666667       0.009
 
 position of ions in fractional coordinates (direct lattice) 
   0.00000000  0.00000000  0.00000000
   0.50000000  0.50000000  0.50000000
 
 position of ions in cartesian coordinates  (Angst):
   0.00000000  0.00000000  0.00000000
   1.43000000  1.43000000  1.43000000
 


--------------------------------------------------------------------------------------------------------


 k-point  1 :   0.0833 0.0833 0.0833  plane waves:     263
 k-point  2 :   0.2500 0.0833 0.0833  plane waves:     277
 k-point  3 :   0.4167 0.0833 0.0833  plane waves:     272
 k-point  4 :  -0.4167 0.0833 0.0833  plane waves:     272
 k-point  5 :  -0.2500 0.0833 0.0833  plane waves:     277
 k-point  6 :  -0.0833 0.0833 0.0833  plane waves:     263
 k-point  7 :   0.0833 0.2500 0.0833  plane waves:     277
 k-point  8 :   0.2500 0.2500 0.0833  plane waves:     275
 k-point  9 :   0.4167 0.2500 0.0833  plane waves:     276
 k-point 10 :  -0.4167 0.2500 0.0833  plane waves:     276
 k-point 11 :  -0.2500 0.2500 0.0833  plane waves:     275
 k-point 12 :  -0.0833 0.2500 0.0833  plane waves:     277
 k-point 13 :   0.0833 0.4167 0.0833  plane waves:     272
 k-point 14 :   0.2500 0.4167 0.0833  plane waves:     276
 k-point 15 :   0.4167 0.4167 0.0833  plane waves:     276
 k-point 16 :  -0.4167 0.4167 0.0833  plane waves:     276
 k-point 17 :  -0.2500 0.4167 0.0833  plane waves:     276
 k-point 18 :  -0.0833 0.4167 0.0833  plane waves:     272
 k-point 19 :   0.0833-0.4167 0.0833  plane waves:     272
 k-point 20 :   0.2500-0.4167 0.0833  plane waves:     276
 k-point 21 :   0.4167-0.4167 0.0833  plane waves:     276
 k-point 22 :  -0.4167-0.4167 0.0833  plane waves:     276
 k-point 23 :  -0.2500-0.4167 0.0833  plane waves:     276
 k-point 24 :  -0.0833-0.4167 0.0833  plane waves:     272
 k-point 25 :   0.0833-0.2500 0.0833  plane waves:     277
 k-point 26 :   0.2500-0.2500 0.0833  plane waves:     275
 k-point 27 :   0.4167-0.2500 0.0833  plane waves:     276
 k-point 28 :  -0.4167-0.2500 0.0833  plane waves:     276
 k-point 29 :  -0.2500-0.2500 0.0833  plane waves:     275
 k-point 30 :  -0.0833-0.2500 0.0833  plane waves:     277
 k-point 31 :   0.0833-0.0833 0.0833  plane waves:     263
 k-point 32 :   0.2500-0.0833 0.0833  plane waves:     277
 k-point 33 :   0.4167-0.0833 0.0833  plane waves:     272
 k-point 34 :  -0.4167-0.0833 0.0833  plane waves:     272
 k-point 35 :  -0.2500-0.0833 0.0833  plane waves:     277
 k-point 36 :  -0.0833-0.0833 0.0833  plane waves:     263
 k-point 37 :   0.0833 0.0833 0.2500  plane waves:     277
 k-point 38 :   0.2500 0.0833 0.2500  plane waves:     275
 k-point 39 :   0.4167 0.0833 0.2500  plane waves:     276
 k-point 40 :  -0.4167 0.0833 0.2500  plane waves:     276
 k-point 41 :  -0.2500 0.0833 0.2500  plane waves:     275
 k-point 42 :  -0.0833 0.0833 0.2500  plane waves:     277
 k-point 43 :   0.0833 0.2500 0.2500  plane waves:     275
 k-point 44 :   0.2500 0.2500 0.2500  plane waves:     284
 k-point 45 :   0.4167 0.2500 0.2500  plane waves:     279
 k-point 46 :  -0.4167 0.2500 0.2500  plane waves:     279
 k-point 47 :  -0.2500 0.2500 0.2500  plane waves:     284
 k-point 48 :  -0.0833 0.2500 0.2500  plane waves:     275
 k-point 49 :   0.0833 0.4167 0.2500  plane waves:     276
 k-point 50 :   0.2500 0.4167 0.2500  plane waves:     279
 k-point 51 :   0.4167 0.4167 0.2500  plane waves:     279
 k-point 52 :  -0.4167 0.4167 0.2500  plane waves:     279
 k-point 53 :  -0.2500 0.4167 0.2500  plane waves:     279
 k-point 54 :  -0.0833 0.4167 0.2500  plane waves:     276
 k-point 55 :   0.0833-0.4167 0.2500  plane waves:     276
 k-point 56 :   0.2500-0.4167 0.2500  plane waves:     279
 k-point 57 :   0.4167-0.4167 0.2500  plane waves:     279
 k-point 58 :  -0.4167-0.4167 0.2500  plane waves:     279
 k-point 59 :  -0.2500-0.4167 0.2500  plane waves:     279
 k-point 60 :  -0.0833-0.4167 0.2500  plane waves:     276
 k-point 61 :   0.0833-0.2500 0.2500  plane waves:     275
 k-point 62 :   0.2500-0.2500 0.2500  plane waves:     284
 k-point 63 :   0.4167-0.2500 0.2500  plane waves:     279
 k-point 64 :  -0.4167-0.2500 0.2500  plane waves:     279
 k-point 65 :  -0.2500-0.2500 0.2500  plane waves:     284
 k-point 66 :  -0.0833-0.2500 0.2500  plane waves:     275
 k-point 67 :   0.0833-0.0833 0.2500  plane waves:     277
 k-point 68 :   0.2500-0.0833 0.2500  plane waves:     275
 k-point 69 :   0.4167-0.0833 0.2500  plane waves:     276
 k-point 70 :  -0.4167-0.0833 0.2500  plane waves:     276
 k-point 71 :  -0.2500-0.0833 0.2500  plane waves:     275
 k-point 72 :  -0.0833-0.0833 0.2500  plane waves:     277
 k-point 73 :   0.0833 0.0833 0.4167  plane waves:     272
 k-point 74 :   0.2500 0.0833 0.4167  plane waves:     276
 k-point 75 :   0.4167 0.0833 0.4167  plane waves:     276
 k-point 76 :  -0.4167 0.0833 0.4167  plane waves:     276
 k-point 77 :  -0.2500 0.0833 0.4167  plane waves:     276
 k-point 78 :  -0.0833 0.0833 0.4167  plane waves:     272
 k-point 79 :   0.0833 0.2500 0.4167  plane waves:     276
 k-point 80 :   0.2500 0.2500 0.4167  plane waves:     279
 k-point 81 :   0.4167 0.2500 0.4167  plane waves:     279
 k-point 82 :  -0.4167 0.2500 0.4167  plane waves:     279
 k-point 83 :  -0.2500 0.2500 0.4167  plane waves:     279
 k-point 84 :  -0.0833 0.2500 0.4167  plane waves:     276
 k-point 85 :   0.0833 0.4167 0.4167  plane waves:     276
 k-point 86 :   0.2500 0.4167 0.4167  plane waves:     279
 k-point 87 :   0.4167 0.4167 0.4167  plane waves:     289
 k-point 88 :  -0.4167 0.4167 0.4167  plane waves:     289
 k-point 89 :  -0.2500 0.4167 0.4167  plane waves:     279
 k-point 90 :  -0.0833 0.4167 0.4167  plane waves:     276
 k-point 91 :   0.0833-0.4167 0.4167  plane waves:     276
 k-point 92 :   0.2500-0.4167 0.4167  plane waves:     279
 k-point 93 :   0.4167-0.4167 0.4167  plane waves:     289
 k-point 94 :  -0.4167-0.4167 0.4167  plane waves:     289
 k-point 95 :  -0.2500-0.4167 0.4167  plane waves:     279
 k-point 96 :  -0.0833-0.4167 0.4167  plane waves:     276
 k-point 97 :   0.0833-0.2500 0.4167  plane waves:     276
 k-point 98 :   0.2500-0.2500 0.4167  plane waves:     279
 k-point 99 :   0.4167-0.2500 0.4167  plane waves:     279
 k-point ** :  -0.4167-0.2500 0.4167  plane waves:     279
 k-point ** :  -0.2500-0.2500 0.4167  plane waves:     279
 k-point ** :  -0.0833-0.2500 0.4167  plane waves:     276
 k-point ** :   0.0833-0.0833 0.4167  plane waves:     272
 k-point ** :   0.2500-0.0833 0.4167  plane waves:     276
 k-point ** :   0.4167-0.0833 0.4167  plane waves:     276
 k-point ** :  -0.4167-0.0833 0.4167  plane waves:     276
 k-point ** :  -0.2500-0.0833 0.4167  plane waves:     276
 k-point ** :  -0.0833-0.0833 0.4167  plane waves:     272

 maximum and minimum number of plane-waves per node :       289      263

 maximum number of plane-waves:       289
 maximum index in each direction: 
   IXMAX=    4   IYMAX=    4   IZMAX=    3
   IXMIN=   -4   IYMIN=   -4   IZMIN=   -4

 WARNING: aliasing errors must be expected set NGX to  18 to avoid them
 WARNING: aliasing errors must be expected set NGY to  18 to avoid them
 WARNING: aliasing errors must be expected set NGZ to  16 to avoid them
 aliasing errors are usually negligible using standard VASP settings
 and one can safely disregard these warnings

 serial   3D FFT for wavefunctions
 parallel 3D FFT for charge:
    minimum data exchange during FFTs selected (reduces bandwidth)


 total amount of memory used by VASP on root node    36594. kBytes
========================================================================

   base      :      30000. kBytes
   nonl-proj :       4986. kBytes
   fftplans  :         32. kBytes
   grid      :        187. kBytes
   one-center:         62. kBytes
   wavefun   :       1327. kBytes
 
     INWAV:  cpu time    0.0000: real time    0.0000
 Broyden mixing: mesh for mixing (old mesh)
   NGX =  9   NGY =  9   NGZ =  9
  (NGX  = 24   NGY  = 24   NGZ  = 24)
  gives a total of    729 points

 initial charge density was supplied:
 charge density of overlapping atoms calculated
 number of electron      16.0000000 magnetization       2.0000000
 keeping initial charge density in first step


--------------------------------------------------------------------------------------------------------


 Maximum index for augmentation-charges          221 (set IRDMAX)


--------------------------------------------------------------------------------------------------------


 First call to EWALD:  gamma=   0.620
 Maximum number of real-space cells 3x 3x 3
 Maximum number of reciprocal cells 3x 3x 3

 FEWALD executed in parallel
    FEWALD:  cpu time    0.0020: real time    0.0020


----------------------------------------- Iteration    1(   1)  ---------------------------------------


    POTLOK:  cpu time    0.0060: real time    0.0059
    SETDIJ:  cpu time    0.0070: real time    0.0069
     EDDAV:  cpu time    2.7226: real time    2.7329
       DOS:  cpu time    0.0020: real time    0.0021
    --------------------------------------------
      LOOP:  cpu time    2.7426: real time    2.7644

 eigenvalue-minimisations  : 14784
 total energy-change (2. order) :-0.1210736E+02  (-0.6348870E+03)
 number of electron      16.0000000 magnetization       2.0000000
 augmentation part       16.0000000 magnetization       2.0000000

 Free energy of the ion-electron system (eV)
  ---------------------------------------------------
  alpha Z        PSCENC =       118.17524546
  Ewald energy   TEWEN  =     -1172.68111701
  -Hartree energ DENC   =      -227.55063001
  -exchange      EXHF   =         0.00000000
  -V(xc)+E(xc)   XCENC  =         7.90824690
  PAW double counting   =      1109.45345578    -1124.86183816
  entropy T*S    EENTRO =         0.00032789
  eigenvalues    EBANDS =        88.87219287
  atomic energy  EATOM  =      1188.57675298
  Solvation  Ediel_sol  =         0.00000000
  ---------------------------------------------------
  free energy    TOTEN  =       -12.10736329 eV

  energy without entropy =      -12.10769118  energy(sigma->0) =      -12.10747259


--------------------------------------------------------------------------------------------------------




----------------------------------------- Iteration    1(   2)  ---------------------------------------


     EDDAV:  cpu time    3.9254: real time    3.9375
       DOS:  cpu time    0.0020: real time    0.0020
    --------------------------------------------
      LOOP:  cpu time    3.9294: real time    3.9526

 eigenvalue-minimisations  : 18464
 total energy-change (2. order) :-0.6375271E+01  (-0.6192244E+01)
 number of electron      16.0000000 magnetization       2.0000000
 augmentation part       16.0000000 magnetization       2.0000000

 Free energy of the ion-electron system (eV)
  ---------------------------------------------------
  alpha Z        PSCENC =       118.17524546
  Ewald energy   TEWEN  =     -1172.68111701
  -Hartree energ DENC   =      -227.55063001
  -exchange      EXHF   =         0.00000000
  -V(xc)+E(xc)   XCENC  =         7.90824690
  PAW double counting   =      1109.45345578    -1124.86183816
  entropy T*S    EENTRO =        -0.01458511
  eigenvalues    EBANDS =        82.51183465
  atomic energy  EATOM  =      1188.57675298
  Solvation  Ediel_sol  =         0.00000000
  ---------------------------------------------------
  free energy    TOTEN  =       -18.48263451 eV

  energy without entropy =      -18.46804940  energy(sigma->0) =      -18.47777281


--------------------------------------------------------------------------------------------------------




----------------------------------------- Iteration    1(   3)  ---------------------------------------


     EDDAV:  cpu time    3.5885: real time    3.5986
       DOS:  cpu time    0.0020: real time    0.0021
    --------------------------------------------
      LOOP:  cpu time    3.5915: real time    3.6141

 eigenvalue-minimisations  : 16992
 total energy-change (2. order) :-0.6522216E-02  (-0.6518890E-02)
 number of electron      16.0000000 magnetization       2.0000000
 augmentation part       16.0000000 magnetization       2.0000000

 Free energy of the ion-electron system (eV)
  ---------------------------------------------------
  alpha Z        PSCENC =       118.17524546
  Ewald energy   TEWEN  =     -1172.68111701
  -Hartree energ DENC   =      -227.55063001
  -exchange      EXHF   =         0.00000000
  -V(xc)+E(xc)   XCENC  =         7.90824690
  PAW double counting   =      1109.45345578    -1124.86183816
  entropy T*S    EENTRO =        -0.01455568
  eigenvalues    EBANDS =        82.50528300
  atomic energy  EATOM  =      1188.57675298
  Solvation  Ediel_sol  =         0.00000000
  ---------------------------------------------------
  free energy    TOTEN  =       -18.48915673 eV

  energy without entropy =      -18.47460105  energy(sigma->0) =      -18.48430484


--------------------------------------------------------------------------------------------------------




----------------------------------------- Iteration    1(   4)  ---------------------------------------


     EDDAV:  cpu time    5.3702: real time    5.3884
       DOS:  cpu time    0.0020: real time    0.0020
    --------------------------------------------
      LOOP:  cpu time    5.3732: real time    5.4030

 eigenvalue-minimisations  : 21664
 total energy-change (2. order) :-0.2390364E-05  (-0.2391169E-05)
 number of electron      16.0000000 magnetization       2.0000000
 augmentation part       16.0000000 magnetization       2.0000000

 Free energy of the ion-electron system (eV)
  ---------------------------------------------------
  alpha Z        PSCENC =       118.17524546
  Ewald energy   TEWEN  =     -1172.68111701
  -Hartree energ DENC   =      -227.55063001
  -exchange      EXHF   =         0.00000000
  -V(xc)+E(xc)   XCENC  =         7.90824690
  PAW double counting   =      1109.45345578    -1124.86183816
  entropy T*S    EENTRO =        -0.01455567
  eigenvalues    EBANDS =        82.50528060
  atomic energy  EATOM  =      1188.57675298
  Solvation  Ediel_sol  =         0.00000000
  ---------------------------------------------------
  free energy    TOTEN  =       -18.48915912 eV

  energy without entropy =      -18.47460345  energy(sigma->0) =      -18.48430723


--------------------------------------------------------------------------------------------------------




----------------------------------------- Iteration    1(   5)  ---------------------------------------


     EDDAV:  cpu time    3.8104: real time    3.8493
       DOS:  cpu time    0.0020: real time    0.0020
    CHARGE:  cpu time    0.0080: real time    0.0077
    MIXING:  cpu time    0.0000: real time    0.0004
    --------------------------------------------
      LOOP:  cpu time    3.8204: real time    3.8723

 eigenvalue-minimisations  : 17376
 total energy-change (2. order) :-0.7048584E-09  (-0.1390471E-10)
 number of electron      15.9999981 magnetization       2.4740059
 augmentation part        7.1456426 magnetization       1.8130301

 Broyden mixing:
  rms(total) = 0.15586E+01    rms(broyden)= 0.15579E+01
  rms(prec ) = 0.37389E+01
  weight for this iteration     100.00

 Free energy of the ion-electron system (eV)
  ---------------------------------------------------
  alpha Z        PSCENC =       118.17524546
  Ewald energy   TEWEN  =     -1172.68111701
  -Hartree energ DENC   =      -227.55063001
  -exchange      EXHF   =         0.00000000
  -V(xc)+E(xc)   XCENC  =         7.90824690
  PAW double counting   =      1109.45345578    -1124.86183816
  entropy T*S    EENTRO =        -0.01455567
  eigenvalues    EBANDS =        82.50528060
  atomic energy  EATOM  =      1188.57675298
  Solvation  Ediel_sol  =         0.00000000
  ---------------------------------------------------
  free energy    TOTEN  =       -18.48915912 eV

  energy without entropy =      -18.47460345  energy(sigma->0) =      -18.48430723


--------------------------------------------------------------------------------------------------------




----------------------------------------- Iteration    1(   6)  ---------------------------------------


    POTLOK:  cpu time    0.0030: real time    0.0036
    SETDIJ:  cpu time    0.0070: real time    0.0069
     EDDAV:  cpu time    4.1084: real time    4.1218
       DOS:  cpu time    0.0020: real time    0.0020
    CHARGE:  cpu time    0.0080: real time    0.0081
    MIXING:  cpu time    0.0010: real time    0.0003
    --------------------------------------------
      LOOP:  cpu time    4.1304: real time    4.1563

 eigenvalue-minimisations  : 18560
 total energy-change (2. order) : 0.2058377E+01  (-0.3289184E+01)
 number of electron      15.9999977 magnetization       3.5330257
 augmentation part        8.6440082 magnetization       2.8676247

 Broyden mixing:
  rms(total) = 0.89183E+00    rms(broyden)= 0.89129E+00
  rms(prec ) = 0.11750E+01
  weight for this iteration     100.00

 eigenvalues of (default mixing * dielectric matrix)
  average eigenvalue GAMMA=   0.5790
  0.5790

 Free energy of the ion-electron system (eV)
  ---------------------------------------------------
  alpha Z        PSCENC =       118.17524546
  Ewald energy   TEWEN  =     -1172.68111701
  -Hartree energ DENC   =      -191.94324738
  -exchange      EXHF   =         0.00000000
  -V(xc)+E(xc)   XCENC  =         6.63833529
  PAW double counting   =      1192.59614396    -1203.10914421
  entropy T*S    EENTRO =         0.01811004
  eigenvalues    EBANDS =        45.29813890
  atomic energy  EATOM  =      1188.57675298
  Solvation  Ediel_sol  =         0.00000000
  ---------------------------------------------------
  free energy    TOTEN  =       -16.43078198 eV

  energy without entropy =      -16.44889202  energy(sigma->0) =      -16.43681866


--------------------------------------------------------------------------------------------------------




----------------------------------------- Iteration    1(   7)  ---------------------------------------


    POTLOK:  cpu time    0.0040: real time    0.0034
    SETDIJ:  cpu time    0.0070: real time    0.0069
     EDDAV:  cpu time    3.2985: real time    3.3078
       DOS:  cpu time    0.0020: real time    0.0020
    CHARGE:  cpu time    0.0070: real time    0.0074
    MIXING:  cpu time    0.0000: real time    0.0003
    --------------------------------------------
      LOOP:  cpu time    3.3185: real time    3.3402

 eigenvalue-minimisations  : 16384
 total energy-change (2. order) : 0.3270271E-01  (-0.2566979E+00)
 number of electron      15.9999978 magnetization       4.3466400
 augmentation part        8.2696024 magnetization       3.5889329

 Broyden mixing:
  rms(total) = 0.45670E+00    rms(broyden)= 0.45668E+00
  rms(prec ) = 0.50833E+00
  weight for this iteration     100.00

 eigenvalues of (default mixing * dielectric matrix)
  average eigenvalue GAMMA=   0.9006
  1.1608  0.6404

 Free energy of the ion-electron system (eV)
  ---------------------------------------------------
  alpha Z        PSCENC =       118.17524546
  Ewald energy   TEWEN  =     -1172.68111701
  -Hartree energ DENC   =      -198.17226846
  -exchange      EXHF   =         0.00000000
  -V(xc)+E(xc)   XCENC  =         7.77709849
  PAW double counting   =      1259.39857857    -1273.65214284
  entropy T*S    EENTRO =        -0.01965142
  eigenvalues    EBANDS =        54.19942496
  atomic energy  EATOM  =      1188.57675298
  Solvation  Ediel_sol  =         0.00000000
  ---------------------------------------------------
  free energy    TOTEN  =       -16.39807927 eV

  energy without entropy =      -16.37842785  energy(sigma->0) =      -16.39152880


--------------------------------------------------------------------------------------------------------




----------------------------------------- Iteration    1(   8)  ---------------------------------------


    POTLOK:  cpu time    0.0030: real time    0.0033
    SETDIJ:  cpu time    0.0070: real time    0.0069
     EDDAV:  cpu time    4.8873: real time    4.9025
       DOS:  cpu time    0.0020: real time    0.0019
    CHARGE:  cpu time    0.0080: real time    0.0083
    MIXING:  cpu time    0.0010: real time    0.0002
    --------------------------------------------
      LOOP:  cpu time    4.9103: real time    4.9362

 eigenvalue-minimisations  : 21120
 total energy-change (2. order) :-0.6550406E-01  (-0.1516806E-01)
 number of electron      15.9999978 magnetization       4.5015631
 augmentation part        8.2768987 magnetization       3.7758451

 Broyden mixing:
  rms(total) = 0.24607E+00    rms(broyden)= 0.24599E+00
  rms(prec ) = 0.28623E+00
  weight for this iteration     100.00

 eigenvalues of (default mixing * dielectric matrix)
  average eigenvalue GAMMA=   1.0053
  1.6977  0.6591  0.6591

 Free energy of the ion-electron system (eV)
  ---------------------------------------------------
  alpha Z        PSCENC =       118.17524546
  Ewald energy   TEWEN  =     -1172.68111701
  -Hartree energ DENC   =      -196.54977958
  -exchange      EXHF   =         0.00000000
  -V(xc)+E(xc)   XCENC  =         8.46287942
  PAW double counting   =      1317.65473388    -1333.61165121
  entropy T*S    EENTRO =        -0.01674608
  eigenvalues    EBANDS =        53.52609881
  atomic energy  EATOM  =      1188.57675298
  Solvation  Ediel_sol  =         0.00000000
  ---------------------------------------------------
  free energy    TOTEN  =       -16.46358333 eV

  energy without entropy =      -16.44683725  energy(sigma->0) =      -16.45800130


--------------------------------------------------------------------------------------------------------




----------------------------------------- Iteration    1(   9)  ---------------------------------------


    POTLOK:  cpu time    0.0020: real time    0.0032
    SETDIJ:  cpu time    0.0070: real time    0.0069
     EDDAV:  cpu time    4.7143: real time    4.7291
       DOS:  cpu time    0.0020: real time    0.0018
    CHARGE:  cpu time    0.0100: real time    0.0103
    MIXING:  cpu time    0.0010: real time    0.0002
    --------------------------------------------
      LOOP:  cpu time    4.7373: real time    4.7650

 eigenvalue-minimisations  : 20608
 total energy-change (2. order) : 0.1130183E-01  (-0.2590253E-02)
 number of electron      15.9999978 magnetization       4.3478418
 augmentation part        8.2962487 magnetization       3.6077033

 Broyden mixing:
  rms(total) = 0.13084E+00    rms(broyden)= 0.13073E+00
  rms(prec ) = 0.14080E+00
  weight for this iteration     100.00

 eigenvalues of (default mixing * dielectric matrix)
  average eigenvalue GAMMA=   1.4287
  2.9012  1.4074  0.7799  0.6262

 Free energy of the ion-electron system (eV)
  ---------------------------------------------------
  alpha Z        PSCENC =       118.17524546
  Ewald energy   TEWEN  =     -1172.68111701
  -Hartree energ DENC   =      -195.09052701
  -exchange      EXHF   =         0.00000000
  -V(xc)+E(xc)   XCENC  =         8.63535153
  PAW double counting   =      1369.80810385    -1387.10299866
  entropy T*S    EENTRO =        -0.01682055
  eigenvalues    EBANDS =        53.24372792
  atomic energy  EATOM  =      1188.57675298
  Solvation  Ediel_sol  =         0.00000000
  ---------------------------------------------------
  free energy    TOTEN  =       -16.45228150 eV

  energy without entropy =      -16.43546095  energy(sigma->0) =      -16.44667465


--------------------------------------------------------------------------------------------------------




----------------------------------------- Iteration    1(  10)  ---------------------------------------


    POTLOK:  cpu time    0.0030: real time    0.0032
    SETDIJ:  cpu time    0.0070: real time    0.0069
     EDDAV:  cpu time    4.9303: real time    4.9457
       DOS:  cpu time    0.0020: real time    0.0019
    CHARGE:  cpu time    0.0110: real time    0.0103
    MIXING:  cpu time    0.0000: real time    0.0003
    --------------------------------------------
      LOOP:  cpu time    4.9532: real time    4.9814

 eigenvalue-minimisations  : 20864
 total energy-change (2. order) :-0.1538907E-02  (-0.1955019E-02)
 number of electron      15.9999978 magnetization       4.3181619
 augmentation part        8.2798609 magnetization       3.5864946

 Broyden mixing:
  rms(total) = 0.76015E-01    rms(broyden)= 0.76009E-01
  rms(prec ) = 0.83664E-01
  weight for this iteration     100.00

 eigenvalues of (default mixing * dielectric matrix)
  average eigenvalue GAMMA=   1.2227
  2.2977  1.5803  0.9373  0.6492  0.6492

 Free energy of the ion-electron system (eV)
  ---------------------------------------------------
  alpha Z        PSCENC =       118.17524546
  Ewald energy   TEWEN  =     -1172.68111701
  -Hartree energ DENC   =      -193.96251327
  -exchange      EXHF   =         0.00000000
  -V(xc)+E(xc)   XCENC  =         8.43630345
  PAW double counting   =      1430.08651988    -1448.66254007
  entropy T*S    EENTRO =        -0.01705120
  eigenvalues    EBANDS =        53.59457939
  atomic energy  EATOM  =      1188.57675298
  Solvation  Ediel_sol  =         0.00000000
  ---------------------------------------------------
  free energy    TOTEN  =       -16.45382040 eV

  energy without entropy =      -16.43676920  energy(sigma->0) =      -16.44813667


--------------------------------------------------------------------------------------------------------




----------------------------------------- Iteration    1(  11)  ---------------------------------------


    POTLOK:  cpu time    0.0030: real time    0.0031
    SETDIJ:  cpu time    0.0070: real time    0.0069
     EDDAV:  cpu time    4.3543: real time    4.3672
       DOS:  cpu time    0.0020: real time    0.0019
    CHARGE:  cpu time    0.0100: real time    0.0101
    MIXING:  cpu time    0.0000: real time    0.0003
    --------------------------------------------
      LOOP:  cpu time    4.3773: real time    4.4023

 eigenvalue-minimisations  : 19072
 total energy-change (2. order) : 0.4241104E-03  (-0.5356057E-03)
 number of electron      15.9999978 magnetization       4.3354944
 augmentation part        8.2936927 magnetization       3.6079043

 Broyden mixing:
  rms(total) = 0.14091E-01    rms(broyden)= 0.14065E-01
  rms(prec ) = 0.18426E-01
  weight for this iteration     100.00

 eigenvalues of (default mixing * dielectric matrix)
  average eigenvalue GAMMA=   1.1291
  2.2626  1.2595  1.2595  0.6334  0.6799  0.6799

 Free energy of the ion-electron system (eV)
  ---------------------------------------------------
  alpha Z        PSCENC =       118.17524546
  Ewald energy   TEWEN  =     -1172.68111701
  -Hartree energ DENC   =      -194.10222711
  -exchange      EXHF   =         0.00000000
  -V(xc)+E(xc)   XCENC  =         8.40337024
  PAW double counting   =      1410.10059919    -1428.14477252
  entropy T*S    EENTRO =        -0.01742466
  eigenvalues    EBANDS =        53.23617714
  atomic energy  EATOM  =      1188.57675298
  Solvation  Ediel_sol  =         0.00000000
  ---------------------------------------------------
  free energy    TOTEN  =       -16.45339629 eV

  energy without entropy =      -16.43597163  energy(sigma->0) =      -16.44758807


--------------------------------------------------------------------------------------------------------




----------------------------------------- Iteration    1(  12)  ---------------------------------------


    POTLOK:  cpu time    0.0020: real time    0.0031
    SETDIJ:  cpu time    0.0070: real time    0.0069
     EDDAV:  cpu time    4.1204: real time    4.1566
       DOS:  cpu time    0.0020: real time    0.0019
    CHARGE:  cpu time    0.0100: real time    0.0101
    MIXING:  cpu time    0.0000: real time    0.0003
    --------------------------------------------
      LOOP:  cpu time    4.1424: real time    4.1919

 eigenvalue-minimisations  : 18816
 total energy-change (2. order) : 0.1986862E-04  (-0.2237833E-04)
 number of electron      15.9999978 magnetization       4.3276001
 augmentation part        8.2973074 magnetization       3.6000076

 Broyden mixing:
  rms(total) = 0.48113E-02    rms(broyden)= 0.48094E-02
  rms(prec ) = 0.59998E-02
  weight for this iteration     100.00

 eigenvalues of (default mixing * dielectric matrix)
  average eigenvalue GAMMA=   1.1185
  2.2789  1.4920  1.0292  1.0292  0.6881  0.6881  0.6236

 Free energy of the ion-electron system (eV)
  ---------------------------------------------------
  alpha Z        PSCENC =       118.17524546
  Ewald energy   TEWEN  =     -1172.68111701
  -Hartree energ DENC   =      -194.05553696
  -exchange      EXHF   =         0.00000000
  -V(xc)+E(xc)   XCENC  =         8.42858484
  PAW double counting   =      1409.96987502    -1428.00982204
  entropy T*S    EENTRO =        -0.01755236
  eigenvalues    EBANDS =        53.16019365
  atomic energy  EATOM  =      1188.57675298
  Solvation  Ediel_sol  =         0.00000000
  ---------------------------------------------------
  free energy    TOTEN  =       -16.45337642 eV

  energy without entropy =      -16.43582407  energy(sigma->0) =      -16.44752564


--------------------------------------------------------------------------------------------------------




----------------------------------------- Iteration    1(  13)  ---------------------------------------


    POTLOK:  cpu time    0.0030: real time    0.0031
    SETDIJ:  cpu time    0.0070: real time    0.0069
     EDDAV:  cpu time    2.4716: real time    2.4817
       DOS:  cpu time    0.0020: real time    0.0019
    --------------------------------------------
      LOOP:  cpu time    2.4846: real time    2.5069

 eigenvalue-minimisations  : 13568
 total energy-change (2. order) : 0.2544127E-06  (-0.2212522E-05)
 number of electron      15.9999978 magnetization       4.3276001
 augmentation part        8.2973074 magnetization       3.6000076

 Free energy of the ion-electron system (eV)
  ---------------------------------------------------
  alpha Z        PSCENC =       118.17524546
  Ewald energy   TEWEN  =     -1172.68111701
  -Hartree energ DENC   =      -194.03795896
  -exchange      EXHF   =         0.00000000
  -V(xc)+E(xc)   XCENC  =         8.41958976
  PAW double counting   =      1410.79083555    -1428.83439773
  entropy T*S    EENTRO =        -0.01754301
  eigenvalues    EBANDS =        53.15521679
  atomic energy  EATOM  =      1188.57675298
  Solvation  Ediel_sol  =         0.00000000
  ---------------------------------------------------
  free energy    TOTEN  =       -16.45337617 eV

  energy without entropy =      -16.43583316  energy(sigma->0) =      -16.44752850


--------------------------------------------------------------------------------------------------------




 average (electrostatic) potential at core
  the test charge radii are     1.0103
  (the norm of the test charge is              1.0000)
       1 -43.6324       2 -43.6345
 
 
 
 E-fermi :   5.4459     XC(G=0): -12.9606     alpha+bet :-13.2519


 spin component 1

 k-point     1 :       0.0833    0.0833    0.0833
  band No.  band energies     occupation 
      1      -2.2961      1.00000
      2       1.0297      1.00000
      3       1.0297      1.00000
      4       3.1669      1.00000
      5       3.1669      1.00000
      6       3.5073      1.00000
      7       4.3903      1.00000
      8       4.3903      1.00000
      9       4.9772      1.00226
     10       5.4571      0.45281
     11       5.4571      0.45281
     12      14.5641      0.00000
     13      14.5641      0.00000
     14      15.1638      0.00000
     15      22.2080      0.00000
     16      22.2080      0.00000
     17      26.9130      0.00000
     18      28.3521      0.00000
     19      28.3521      0.00000
     20      30.6740      0.00000
     21      32.7501      0.00000
     22      35.3062      0.00000
     23      35.3062      0.00000
     24      36.8141      0.00000
     25      36.8141      0.00000
     26      41.1157      0.00000
     27      41.4460      0.00000
     28      41.4460      0.00000
     29      42.7278      0.00000
     30      48.3557      0.00000
     31      50.3856      0.00000
     32      50.3856      0.00000

 k-point     2 :       0.2500    0.0833    0.0833
  band No.  band energies     occupation 
      1      -1.2552      1.00000
      2       1.4110      1.00000
      3       1.4429      1.00000
      4       3.0525      1.00000
      5       3.1051      1.00000
      6       3.9435      1.00000
      7       4.0492      1.00000
      8       4.1766      1.00000
      9       4.5888      1.00000
     10       4.7736      1.00001
     11       5.3957      0.70504
     12      10.5796     -0.00000
     13      16.2223      0.00000
     14      16.6201      0.00000
     15      22.8006      0.00000
     16      24.3700      0.00000
     17      24.7174      0.00000
     18      26.0549      0.00000
     19      29.5503      0.00000
     20      30.7633      0.00000
     21      30.8972      0.00000
     22      32.7357      0.00000
     23      35.2862      0.00000
     24      38.9801      0.00000
     25      39.6017      0.00000
     26      40.9855      0.00000
     27      43.7703      0.00000
     28      44.7390      0.00000
     29      45.5216      0.00000
     30      45.5768      0.00000
     31      46.9708      0.00000
     32      51.6624      0.00000

 k-point     3 :       0.4167    0.0833    0.0833
  band No.  band energies     occupation 
      1       0.3991      1.00000
      2       1.4985      1.00000
      3       2.1472      1.00000
      4       2.8480      1.00000
      5       3.2105      1.00000
      6       3.5513      1.00000
      7       3.7410      1.00000
      8       4.0546      1.00000
      9       4.4833      1.00000
     10       4.9831      1.00255
     11       5.1107      1.01960
     12       7.0009     -0.00000
     13      18.7433      0.00000
     14      19.2019      0.00000
     15      21.5661      0.00000
     16      22.4223      0.00000
     17      24.1973      0.00000
     18      25.7967      0.00000
     19      26.5999      0.00000
     20      28.1099      0.00000
     21      33.8287      0.00000
     22      35.9677      0.00000
     23      37.5243      0.00000
     24      37.9704      0.00000
     25      40.4224      0.00000
     26      41.1812      0.00000
     27      42.7475      0.00000
     28      44.6661      0.00000
     29      46.9471      0.00000
     30      47.9297      0.00000
     31      49.0851      0.00000
     32      51.2991      0.00000

 k-point     4 :      -0.4167    0.0833    0.0833
  band No.  band energies     occupation 
      1       0.3991      1.00000
      2       1.4985      1.00000
      3       2.1472      1.00000
      4       2.8480      1.00000
      5       3.2105      1.00000
      6       3.5513      1.00000
      7       3.7410      1.00000
      8       4.0546      1.00000
      9       4.4833      1.00000
     10       4.9831      1.00255
     11       5.1107      1.01960
     12       7.0009     -0.00000
     13      18.7433      0.00000
     14      19.2019      0.00000
     15      21.5661      0.00000
     16      22.4223      0.00000
     17      24.1973      0.00000
     18      25.7967      0.00000
     19      26.5999      0.00000
     20      28.1099      0.00000
     21      33.8287      0.00000
     22      35.9677      0.00000
     23      37.5243      0.00000
     24      37.9704      0.00000
     25      40.4224      0.00000
     26      41.1812      0.00000
     27      42.7475      0.00000
     28      44.6661      0.00000
     29      46.9471      0.00000
     30      47.9297      0.00000
     31      49.0851      0.00000
     32      51.2991      0.00000

 k-point     5 :      -0.2500    0.0833    0.0833
  band No.  band energies     occupation 
      1      -1.2552      1.00000
      2       1.4110      1.00000
      3       1.4429      1.00000
      4       3.0525      1.00000
      5       3.1051      1.00000
      6       3.9435      1.00000
      7       4.0492      1.00000
      8       4.1766      1.00000
      9       4.5888      1.00000
     10       4.7736      1.00001
     11       5.3957      0.70504
     12      10.5796     -0.00000
     13      16.2223      0.00000
     14      16.6201      0.00000
     15      22.8006      0.00000
     16      24.3700      0.00000
     17      24.7174      0.00000
     18      26.0549      0.00000
     19      29.5503      0.00000
     20      30.7633      0.00000
     21      30.8972      0.00000
     22      32.7357      0.00000
     23      35.2862      0.00000
     24      38.9801      0.00000
     25      39.6017      0.00000
     26      40.9855      0.00000
     27      43.7703      0.00000
     28      44.7390      0.00000
     29      45.5216      0.00000
     30      45.5768      0.00000
     31      46.9708      0.00000
     32      51.6624      0.00000

 k-point     6 :      -0.0833    0.0833    0.0833
  band No.  band energies     occupation 
      1      -2.2961      1.00000
      2       1.0297      1.00000
      3       1.0297      1.00000
      4       3.1669      1.00000
      5       3.1669      1.00000
      6       3.5073      1.00000
      7       4.3903      1.00000
      8       4.3903      1.00000
      9       4.9772      1.00226
     10       5.4571      0.45281
     11       5.4571      0.45281
     12      14.5641      0.00000
     13      14.5641      0.00000
     14      15.1638      0.00000
     15      22.2080      0.00000
     16      22.2080      0.00000
     17      26.9130      0.00000
     18      28.3521      0.00000
     19      28.3521      0.00000
     20      30.6740      0.00000
     21      32.7501      0.00000
     22      35.3062      0.00000
     23      35.3062      0.00000
     24      36.8141      0.00000
     25      36.8141      0.00000
     26      41.1157      0.00000
     27      41.4460      0.00000
     28      41.4460      0.00000
     29      42.7278      0.00000
     30      48.3557      0.00000
     31      50.3856      0.00000
     32      50.3856      0.00000

 k-point     7 :       0.0833    0.2500    0.0833
  band No.  band energies     occupation 
      1      -1.2552      1.00000
      2       1.4110      1.00000
      3       1.4429      1.00000
      4       3.0525      1.00000
      5       3.1051      1.00000
      6       3.9435      1.00000
      7       4.0492      1.00000
      8       4.1766      1.00000
      9       4.5888      1.00000
     10       4.7736      1.00001
     11       5.3957      0.70504
     12      10.5796     -0.00000
     13      16.2223      0.00000
     14      16.6201      0.00000
     15      22.8006      0.00000
     16      24.3700      0.00000
     17      24.7174      0.00000
     18      26.0549      0.00000
     19      29.5503      0.00000
     20      30.7633      0.00000
     21      30.8972      0.00000
     22      32.7357      0.00000
     23      35.2862      0.00000
     24      38.9801      0.00000
     25      39.6017      0.00000
     26      40.9855      0.00000
     27      43.7703      0.00000
     28      44.7390      0.00000
     29      45.5216      0.00000
     30      45.5768      0.00000
     31      46.9708      0.00000
     32      51.6624      0.00000

 k-point     8 :       0.2500    0.2500    0.0833
  band No.  band energies     occupation 
      1      -0.3747      1.00000
      2       1.5296      1.00000
      3       1.9716      1.00000
      4       2.6925      1.00000
      5       2.9931      1.00000
      6       3.3649      1.00000
      7       4.2866      1.00000
      8       4.4258      1.00000
      9       4.4922      1.00000
     10       4.6156      1.00000
     11       5.5548      0.10658
     12      10.8062     -0.00000
     13      13.2177      0.00000
     14      17.6838      0.00000
     15      21.1101      0.00000
     16      23.9398      0.00000
     17      25.2401      0.00000
     18      27.6441      0.00000
     19      28.1967      0.00000
     20      30.4623      0.00000
     21      32.1026      0.00000
     22      34.1276      0.00000
     23      36.2679      0.00000
     24      36.3819      0.00000
     25      39.2058      0.00000
     26      41.8163      0.00000
     27      42.1447      0.00000
     28      45.8213      0.00000
     29      48.2359      0.00000
     30      50.0537      0.00000
     31      50.0684      0.00000
     32      52.0626      0.00000

 k-point     9 :       0.4167    0.2500    0.0833
  band No.  band energies     occupation 
      1       0.7498      1.00000
      2       1.3823      1.00000
      3       2.5703      1.00000
      4       2.5706      1.00000
      5       2.9521      1.00000
      6       3.1245      1.00000
      7       4.1964      1.00000
      8       4.2515      1.00000
      9       4.8029      1.00003
     10       5.3749      0.78041
     11       5.5011      0.27603
     12       7.7039     -0.00000
     13      14.7298      0.00000
     14      17.5494      0.00000
     15      19.8392      0.00000
     16      22.6070      0.00000
     17      25.0489      0.00000
     18      26.5565      0.00000
     19      29.9600      0.00000
     20      30.3467      0.00000
     21      32.6616      0.00000
     22      33.8050      0.00000
     23      35.7497      0.00000
     24      37.2329      0.00000
     25      40.0929      0.00000
     26      43.4398      0.00000
     27      45.0980      0.00000
     28      47.3951      0.00000
     29      47.7103      0.00000
     30      51.2193      0.00000
     31      51.8073      0.00000
     32      52.5028      0.00000

 k-point    10 :      -0.4167    0.2500    0.0833
  band No.  band energies     occupation 
      1       0.7498      1.00000
      2       1.3823      1.00000
      3       2.5703      1.00000
      4       2.5706      1.00000
      5       2.9521      1.00000
      6       3.1245      1.00000
      7       4.1964      1.00000
      8       4.2515      1.00000
      9       4.8029      1.00003
     10       5.3749      0.78041
     11       5.5011      0.27603
     12       7.7039     -0.00000
     13      14.7298      0.00000
     14      17.5494      0.00000
     15      19.8392      0.00000
     16      22.6070      0.00000
     17      25.0489      0.00000
     18      26.5565      0.00000
     19      29.9600      0.00000
     20      30.3467      0.00000
     21      32.6616      0.00000
     22      33.8050      0.00000
     23      35.7497      0.00000
     24      37.2329      0.00000
     25      40.0929      0.00000
     26      43.4398      0.00000
     27      45.0980      0.00000
     28      47.3951      0.00000
     29      47.7103      0.00000
     30      51.2193      0.00000
     31      51.8073      0.00000
     32      52.5028      0.00000

 k-point    11 :      -0.2500    0.2500    0.0833
  band No.  band energies     occupation 
      1      -0.3747      1.00000
      2       1.5296      1.00000
      3       1.9716      1.00000
      4       2.6925      1.00000
      5       2.9931      1.00000
      6       3.3649      1.00000
      7       4.2866      1.00000
      8       4.4258      1.00000
      9       4.4922      1.00000
     10       4.6156      1.00000
     11       5.5548      0.10658
[...]
      8       6.0300     -0.00014
      9       6.5455     -0.00000
     10       7.1289     -0.00000
     11       7.6879     -0.00000
     12       8.7576     -0.00000
     13      19.4630      0.00000
     14      19.8136      0.00000
     15      22.1402      0.00000
     16      22.9758      0.00000
     17      24.6544      0.00000
     18      26.2242      0.00000
     19      26.9264      0.00000
     20      28.5248      0.00000
     21      34.2086      0.00000
     22      36.4005      0.00000
     23      37.7950      0.00000
     24      38.5864      0.00000
     25      40.8557      0.00000
     26      41.5190      0.00000
     27      43.1331      0.00000
     28      45.0992      0.00000
     29      47.6453      0.00000
     30      48.0912      0.00000
     31      49.6192      0.00000
     32      52.0119      0.00000

 k-point   104 :       0.2500   -0.0833    0.4167
  band No.  band energies     occupation 
      1       1.3441      1.00000
      2       2.6360      1.00000
      3       4.2541      1.00000
      4       4.3368      1.00000
      5       4.6701      1.00000
      6       4.6876      1.00000
      7       6.4367     -0.00000
      8       6.6372     -0.00000
      9       7.2860     -0.00000
     10       7.6062     -0.00000
     11       7.6571     -0.00000
     12       9.2308     -0.00000
     13      15.7051      0.00000
     14      18.3443      0.00000
     15      20.4192      0.00000
     16      23.0344      0.00000
     17      25.3792      0.00000
     18      26.9200      0.00000
     19      30.3190      0.00000
     20      30.6602      0.00000
     21      33.0221      0.00000
     22      34.1528      0.00000
     23      36.0996      0.00000
     24      37.7161      0.00000
     25      40.7299      0.00000
     26      43.6431      0.00000
     27      45.4963      0.00000
     28      47.8999      0.00000
     29      48.0709      0.00000
     30      51.9546      0.00000
     31      52.4055      0.00000
     32      52.7011      0.00000

 k-point   105 :       0.4167   -0.0833    0.4167
  band No.  band energies     occupation 
      1       1.9368      1.00000
      2       2.3180      1.00000
      3       3.9892      1.00000
      4       4.0822      1.00000
      5       5.2433      1.02643
      6       5.2987      0.97189
      7       6.8450     -0.00000
      8       6.9971     -0.00000
      9       7.3616     -0.00000
     10       7.6985     -0.00000
     11       8.1456     -0.00000
     12       8.9263     -0.00000
     13      13.9805      0.00000
     14      15.2666      0.00000
     15      21.8350      0.00000
     16      23.2507      0.00000
     17      25.2970      0.00000
     18      25.3199      0.00000
     19      30.0342      0.00000
     20      30.3052      0.00000
     21      34.0134      0.00000
     22      35.1525      0.00000
     23      36.3781      0.00000
     24      39.7889      0.00000
     25      41.4041      0.00000
     26      43.3494      0.00000
     27      47.7048      0.00000
     28      48.5039      0.00000
     29      50.7196      0.00000
     30      51.3968      0.00000
     31      54.0992      0.00000
     32      54.4758      0.00000

 k-point   106 :      -0.4167   -0.0833    0.4167
  band No.  band energies     occupation 
      1       1.9368      1.00000
      2       2.3180      1.00000
      3       3.9892      1.00000
      4       4.0822      1.00000
      5       5.2433      1.02643
      6       5.2987      0.97189
      7       6.8450     -0.00000
      8       6.9971     -0.00000
      9       7.3616     -0.00000
     10       7.6985     -0.00000
     11       8.1456     -0.00000
     12       8.9263     -0.00000
     13      13.9805      0.00000
     14      15.2666      0.00000
     15      21.8350      0.00000
     16      23.2507      0.00000
     17      25.2970      0.00000
     18      25.3199      0.00000
     19      30.0342      0.00000
     20      30.3052      0.00000
     21      34.0134      0.00000
     22      35.1525      0.00000
     23      36.3781      0.00000
     24      39.7889      0.00000
     25      41.4041      0.00000
     26      43.3494      0.00000
     27      47.7048      0.00000
     28      48.5039      0.00000
     29      50.7196      0.00000
     30      51.3968      0.00000
     31      54.0992      0.00000
     32      54.4758      0.00000

 k-point   107 :      -0.2500   -0.0833    0.4167
  band No.  band energies     occupation 
      1       1.3441      1.00000
      2       2.6360      1.00000
      3       4.2541      1.00000
      4       4.3368      1.00000
      5       4.6701      1.00000
      6       4.6876      1.00000
      7       6.4367     -0.00000
      8       6.6372     -0.00000
      9       7.2860     -0.00000
     10       7.6062     -0.00000
     11       7.6571     -0.00000
     12       9.2308     -0.00000
     13      15.7051      0.00000
     14      18.3443      0.00000
     15      20.4192      0.00000
     16      23.0344      0.00000
     17      25.3792      0.00000
     18      26.9200      0.00000
     19      30.3190      0.00000
     20      30.6602      0.00000
     21      33.0221      0.00000
     22      34.1528      0.00000
     23      36.0996      0.00000
     24      37.7161      0.00000
     25      40.7299      0.00000
     26      43.6431      0.00000
     27      45.4963      0.00000
     28      47.8999      0.00000
     29      48.0709      0.00000
     30      51.9546      0.00000
     31      52.4055      0.00000
     32      52.7011      0.00000

 k-point   108 :      -0.0833   -0.0833    0.4167
  band No.  band energies     occupation 
      1       0.7205      1.00000
      2       2.4881      1.00000
      3       4.1476      1.00000
      4       4.8192      1.00004
      5       5.0148      1.00469
      6       5.4096      0.65068
      7       5.9568     -0.00090
      8       6.0300     -0.00014
      9       6.5455     -0.00000
     10       7.1289     -0.00000
     11       7.6879     -0.00000
     12       8.7576     -0.00000
     13      19.4630      0.00000
     14      19.8136      0.00000
     15      22.1402      0.00000
     16      22.9758      0.00000
     17      24.6544      0.00000
     18      26.2242      0.00000
     19      26.9264      0.00000
     20      28.5248      0.00000
     21      34.2086      0.00000
     22      36.4005      0.00000
     23      37.7950      0.00000
     24      38.5864      0.00000
     25      40.8557      0.00000
     26      41.5190      0.00000
     27      43.1331      0.00000
     28      45.0992      0.00000
     29      47.6453      0.00000
     30      48.0912      0.00000
     31      49.6192      0.00000
     32      52.0119      0.00000


--------------------------------------------------------------------------------------------------------


 soft charge-density along one line, spin component           1
         0         1         2         3         4         5         6         7         8         9
 total charge-density along one line
 
 soft charge-density along one line, spin component           2
         0         1         2         3         4         5         6         7         8         9
 total charge-density along one line
 
 pseudopotential strength for first ion, spin component:           1
 -5.805  -0.000   0.000  -0.000   0.000  -6.330  -0.000   0.000
 -0.000  -5.805   0.000   0.000   0.000  -0.000  -6.330   0.000
  0.000   0.000  -5.981  -0.000  -0.000   0.000   0.000  -6.500
 -0.000   0.000  -0.000  -5.805  -0.000  -0.000   0.000  -0.000
  0.000   0.000  -0.000  -0.000  -5.981   0.000   0.000   0.000
 -6.330  -0.000   0.000  -0.000   0.000  -6.813  -0.000   0.000
 -0.000  -6.330   0.000   0.000   0.000  -0.000  -6.813   0.000
  0.000   0.000  -6.500  -0.000   0.000   0.000   0.000  -6.978
 -0.000   0.000  -0.000  -6.330  -0.000  -0.000   0.000  -0.000
  0.000   0.000   0.000  -0.000  -6.500   0.000   0.000   0.000
  0.000   0.000   0.000   0.000  -0.000   0.000   0.000   0.000
  0.000   0.000   0.000   0.000  -0.000   0.000   0.000   0.000
  0.000  -0.000  -0.000   0.000  -0.000   0.000  -0.000  -0.000
  0.000   0.000  -0.000  -0.000  -0.000   0.000   0.000  -0.000
  0.000   0.000  -0.000  -0.000  -0.000   0.000   0.000  -0.000
  0.000  -0.000  -0.000   0.000  -0.000   0.000  -0.000  -0.000
  0.000   0.000  -0.000  -0.000  -0.000   0.000   0.000  -0.000
  0.000   0.000  -0.000  -0.000  -0.000   0.000   0.000  -0.000
 pseudopotential strength for first ion, spin component:           2
 -4.344   0.000  -0.000   0.000  -0.000  -4.915   0.000  -0.000
  0.000  -4.344  -0.000   0.000  -0.000   0.000  -4.915  -0.000
 -0.000  -0.000  -4.112   0.000  -0.000  -0.000  -0.000  -4.688
  0.000   0.000   0.000  -4.344  -0.000   0.000   0.000   0.000
 -0.000  -0.000  -0.000  -0.000  -4.112  -0.000  -0.000  -0.000
 -4.915   0.000  -0.000   0.000  -0.000  -5.442   0.000  -0.000
  0.000  -4.915  -0.000   0.000  -0.000   0.000  -5.442  -0.000
 -0.000  -0.000  -4.688   0.000  -0.000  -0.000  -0.000  -5.221
  0.000   0.000   0.000  -4.915  -0.000   0.000   0.000   0.000
 -0.000  -0.000  -0.000  -0.000  -4.688  -0.000  -0.000  -0.000
 -0.000  -0.000  -0.000   0.000  -0.000  -0.000  -0.000  -0.000
 -0.000  -0.000  -0.000   0.000  -0.000  -0.000  -0.000  -0.000
 -0.000   0.000  -0.000  -0.000  -0.000  -0.000   0.000  -0.000
 -0.000   0.000  -0.000   0.000   0.000  -0.000   0.000  -0.000
  0.000  -0.000   0.000   0.000   0.000   0.000  -0.000   0.000
 -0.000   0.000  -0.000  -0.000  -0.000  -0.000   0.000  -0.000
 -0.000   0.000   0.000   0.000   0.000  -0.000   0.000   0.000
  0.000  -0.000   0.000   0.000   0.000   0.000  -0.000   0.000
 total augmentation occupancy for first ion, spin component:           1
  2.242   0.000   0.000   0.000   0.000  -1.177  -0.000  -0.000  -0.000  -0.000   0.000  -0.000   0.000   0.000  -0.000   0.000
  0.000   2.242   0.000   0.000   0.000  -0.000  -1.177  -0.000  -0.000  -0.000  -0.000   0.000   0.000   0.000  -0.000  -0.000
  0.000   0.000   3.572  -0.000   0.000  -0.000  -0.000  -2.233   0.000  -0.000  -0.000   0.000  -0.000  -0.000  -0.000   0.000
  0.000   0.000  -0.000   2.242   0.000  -0.000  -0.000   0.000  -1.177  -0.000   0.000  -0.000   0.000  -0.000   0.000  -0.000
  0.000   0.000   0.000   0.000   3.572  -0.000  -0.000  -0.000  -0.000  -2.233  -0.000   0.000   0.000   0.000  -0.000  -0.000
 -1.177  -0.000  -0.000  -0.000  -0.000   1.499   0.000   0.000   0.000   0.000   0.000  -0.000   0.000   0.000  -0.000  -0.000
 -0.000  -1.177  -0.000  -0.000  -0.000   0.000   1.499  -0.000  -0.000  -0.000  -0.000   0.000   0.000  -0.000  -0.000  -0.000
 -0.000  -0.000  -2.233   0.000  -0.000   0.000  -0.000   2.156  -0.000  -0.000   0.000  -0.000   0.000   0.000   0.000  -0.000
 -0.000  -0.000   0.000  -1.177  -0.000   0.000  -0.000  -0.000   1.499   0.000   0.000  -0.000   0.000  -0.000  -0.000  -0.000
 -0.000  -0.000  -0.000  -0.000  -2.233   0.000  -0.000  -0.000   0.000   2.156   0.000  -0.000  -0.000  -0.000   0.000   0.000
  0.000  -0.000  -0.000   0.000  -0.000   0.000  -0.000   0.000   0.000   0.000   2.343  -0.268   0.000  -0.000   0.000   0.000
 -0.000   0.000   0.000  -0.000   0.000  -0.000   0.000  -0.000  -0.000  -0.000  -0.268   0.036  -0.000   0.000  -0.000  -0.000
  0.000   0.000  -0.000   0.000   0.000   0.000   0.000   0.000   0.000  -0.000   0.000  -0.000   0.284  -0.000   0.000  -0.025
  0.000   0.000  -0.000  -0.000   0.000   0.000  -0.000   0.000  -0.000  -0.000  -0.000   0.000  -0.000   0.284  -0.000   0.000
 -0.000  -0.000  -0.000   0.000  -0.000  -0.000  -0.000   0.000  -0.000   0.000   0.000  -0.000   0.000  -0.000   0.284  -0.000
  0.000  -0.000   0.000  -0.000  -0.000  -0.000  -0.000  -0.000  -0.000   0.000   0.000  -0.000  -0.025   0.000  -0.000   0.002
  0.000  -0.000   0.000  -0.000  -0.000  -0.000   0.000  -0.000   0.000   0.000   0.000  -0.000   0.000  -0.025   0.000  -0.000
  0.000   0.000   0.000   0.000   0.000  -0.000   0.000  -0.000  -0.000  -0.000   0.000   0.000  -0.000   0.000  -0.025   0.000
 total augmentation occupancy for first ion, spin component:           2
  1.895  -0.000   0.000   0.000   0.000  -0.800   0.000  -0.000  -0.000  -0.000   0.000  -0.000  -0.000   0.000  -0.000  -0.000
 -0.000   1.895   0.000   0.000   0.000   0.000  -0.800  -0.000  -0.000  -0.000   0.000   0.000   0.000   0.000  -0.000  -0.000
  0.000   0.000   3.116  -0.000   0.000  -0.000  -0.000  -1.405   0.000  -0.000   0.000   0.000  -0.000   0.000   0.000   0.000
  0.000   0.000  -0.000   1.895  -0.000  -0.000  -0.000   0.000  -0.800   0.000   0.000  -0.000   0.000   0.000  -0.000  -0.000
  0.000   0.000   0.000  -0.000   3.116  -0.000  -0.000  -0.000   0.000  -1.405  -0.000   0.000   0.000   0.000   0.000  -0.000
 -0.800   0.000  -0.000  -0.000  -0.000   0.099  -0.000  -0.000  -0.000  -0.000  -0.000   0.000  -0.000  -0.000  -0.000   0.000
  0.000  -0.800  -0.000  -0.000  -0.000  -0.000   0.099   0.000   0.000   0.000  -0.000   0.000   0.000   0.000   0.000  -0.000
 -0.000  -0.000  -1.405   0.000  -0.000  -0.000   0.000   0.415  -0.000  -0.000  -0.000   0.000   0.000  -0.000  -0.000  -0.000
 -0.000  -0.000   0.000  -0.800   0.000  -0.000   0.000  -0.000   0.099  -0.000   0.000  -0.000   0.000   0.000  -0.000  -0.000
 -0.000  -0.000  -0.000   0.000  -1.405  -0.000   0.000  -0.000  -0.000   0.415   0.000  -0.000  -0.000  -0.000  -0.000   0.000
  0.000   0.000   0.000   0.000  -0.000  -0.000  -0.000  -0.000   0.000   0.000  -0.329   0.098   0.000  -0.000  -0.000   0.000
 -0.000   0.000   0.000  -0.000   0.000   0.000   0.000   0.000  -0.000  -0.000   0.098  -0.017  -0.000   0.000  -0.000   0.000
 -0.000   0.000  -0.000   0.000   0.000  -0.000   0.000   0.000   0.000  -0.000   0.000  -0.000  -0.042  -0.000  -0.000   0.006
  0.000   0.000   0.000   0.000   0.000  -0.000   0.000  -0.000   0.000  -0.000  -0.000   0.000  -0.000  -0.042   0.000   0.000
 -0.000  -0.000   0.000  -0.000   0.000  -0.000   0.000  -0.000  -0.000  -0.000  -0.000  -0.000  -0.000   0.000  -0.042   0.000
 -0.000  -0.000   0.000  -0.000  -0.000   0.000  -0.000  -0.000  -0.000   0.000   0.000   0.000   0.006   0.000   0.000  -0.001
  0.000  -0.000  -0.000   0.000  -0.000   0.000  -0.000  -0.000  -0.000   0.000   0.000  -0.000   0.000   0.006  -0.000  -0.000
  0.000   0.000  -0.000  -0.000  -0.000   0.000  -0.000   0.000   0.000   0.000   0.000  -0.000   0.000  -0.000   0.006  -0.000


------------------------ aborting loop because EDIFF is reached ----------------------------------------


    CHARGE:  cpu time    0.0080: real time    0.0087
    FORLOC:  cpu time    0.0000: real time    0.0000
    FORNL :  cpu time    0.0280: real time    0.0277
    STRESS:  cpu time    0.1490: real time    0.1485
    FORCOR:  cpu time    0.0030: real time    0.0027
    FORHAR:  cpu time    0.0000: real time    0.0005
    MIXING:  cpu time    0.0000: real time    0.0003
    OFIELD:  cpu time    0.0010: real time    0.0001

  FORCE on cell =-STRESS in cart. coord.  units (eV):
  Direction    XX          YY          ZZ          XY          YZ          ZX
  --------------------------------------------------------------------------------------
  Alpha Z   118.17525   118.17525   118.17525
  Ewald    -390.89368  -390.89368  -390.89368     0.00000     0.00000     0.00000
  Hartree    64.66181    64.66181    64.66181    -0.00000     0.00000    -0.00000
  E(xc)     -79.14783   -79.14783   -79.14783     0.00000    -0.00000     0.00000
  Local     116.15885   116.15885   116.15885     0.00000    -0.00000    -0.00000
  n-local   -52.03028   -52.03028   -52.03028    -0.00000     0.00000    -0.00000
  augment    77.57960    77.57960    77.57960     0.00000     0.00000     0.00000
  Kinetic   144.49741   144.49741   144.49741     0.00000    -0.00000     0.00000
  Fock        0.00000     0.00000     0.00000     0.00000     0.00000     0.00000
  -------------------------------------------------------------------------------------
  Total      -0.99887    -0.99887    -0.99887     0.00000    -0.00000    -0.00000
  in kB     -68.41053   -68.41053   -68.41049     0.00001    -0.00000    -0.00000
  external pressure =      -68.41 kB  Pullay stress =        0.00 kB


 VOLUME and BASIS-vectors are now :
 -----------------------------------------------------------------------------
  energy-cutoff  :      300.00
  volume of cell :       23.39
      direct lattice vectors                 reciprocal lattice vectors
     2.860000000  0.000000000  0.000000000     0.349650350  0.000000000  0.000000000
     0.000000000  2.860000000  0.000000000     0.000000000  0.349650350  0.000000000
     0.000000000  0.000000000  2.860000000     0.000000000  0.000000000  0.349650350

  length of vectors
     2.860000000  2.860000000  2.860000000     0.349650350  0.349650350  0.349650350


 FORCES acting on ions
    electron-ion (+dipol)            ewald-force                    non-local-force                 convergence-correction
 -----------------------------------------------------------------------------------------------
   0.211E-07 0.145E-07 0.522E-07   0.219E-14 -.742E-15 -.130E-14   0.244E-07 0.232E-07 0.628E-07   -.191E-07 -.269E-07 -.192E-07
   0.153E-07 -.360E-07 0.291E-08   -.209E-14 0.143E-14 -.194E-15   0.526E-07 -.362E-07 0.253E-07   -.367E-07 0.245E-07 -.154E-07
 -----------------------------------------------------------------------------------------------
   0.364E-07 -.216E-07 0.551E-07   0.102E-15 0.685E-15 -.150E-14   0.771E-07 -.131E-07 0.882E-07   -.558E-07 -.236E-08 -.346E-07
 
 
 POSITION                                       TOTAL-FORCE (eV/Angst)
 -----------------------------------------------------------------------------------
      0.00000      0.00000      0.00000        -0.000000      0.000000      0.000000
      1.43000      1.43000      1.43000         0.000000     -0.000000     -0.000000
 -----------------------------------------------------------------------------------
    total drift:                                0.000000     -0.000000      0.000000


--------------------------------------------------------------------------------------------------------



  FREE ENERGIE OF THE ION-ELECTRON SYSTEM (eV)
  ---------------------------------------------------
  free  energy   TOTEN  =       -16.45337617 eV

  energy  without entropy=      -16.43583316  energy(sigma->0) =      -16.44752850
 


--------------------------------------------------------------------------------------------------------


    POTLOK:  cpu time    0.0090: real time    0.0101


--------------------------------------------------------------------------------------------------------




--------------------------------------------------------------------------------------------------------


  
 reached required accuracy - stopping structural energy minimisation
     LOOP+:  cpu time   52.7330: real time   53.1700
    4ORBIT:  cpu time    0.0000: real time    0.0000

 total amount of memory used by VASP on root node    36594. kBytes
========================================================================

   base      :      30000. kBytes
   nonl-proj :       4986. kBytes
   fftplans  :         32. kBytes
   grid      :        187. kBytes
   one-center:         62. kBytes
   wavefun   :       1327. kBytes
 
  
  
 General timing and accounting informations for this job:
 ========================================================
  
                  Total CPU time used (sec):       54.409
                            User time (sec):       51.667
                          System time (sec):        2.742
                         Elapsed time (sec):       57.678
  
                   Maximum memory used (kb):       77996.
                   Average memory used (kb):           0.
  
                          Minor page faults:      1107026
                          Major page faults:           11
                 Voluntary context switches:         4356
