 vasp.5.4.1 24Jun15 (build May 02 2016 14:41:14) complex                        
  
 executed on           IFC91_ompi date 2025.11.12  12:14:50
 running on   32 total cores
 distrk:  each k-point on   32 cores,    1 groups
 distr:  one band on NCORES_PER_BAND=   1 cores,   32 groups


--------------------------------------------------------------------------------------------------------


 INCAR:
 POTCAR:    PAW_PBE Fe 06Sep2000                  

 ----------------------------------------------------------------------------- 
|                                                                             |
|           W    W    AA    RRRRR   N    N  II  N    N   GGGG   !!!           |
|           W    W   A  A   R    R  NN   N  II  NN   N  G    G  !!!           |
|           W    W  A    A  R    R  N N  N  II  N N  N  G       !!!           |
|           W WW W  AAAAAA  RRRRR   N  N N  II  N  N N  G  GGG   !            |
|           WW  WW  A    A  R   R   N   NN  II  N   NN  G    G                |
|           W    W  A    A  R    R  N    N  II  N    N   GGGG   !!!           |
|                                                                             |
|      For optimal performance we recommend to set                            |
|        NCORE= 4 - approx SQRT( number of cores)                             |
|      NCORE specifies how many cores store one orbital (NPAR=cpu/NCORE).     |
|      This setting can  greatly improve the performance of VASP for DFT.     |
|      The default, NPAR=number of cores might be grossly inefficient         |
|      on modern multi-core architectures or massively parallel machines.     |
|      Do your own testing !!!!                                               |
|      Unfortunately you need to use the default for GW and RPA calculations. |
|      (for HF NCORE is supported but not extensively tested yet)             |
|                                                                             |
 ----------------------------------------------------------------------------- 

 POTCAR:    PAW_PBE Fe 06Sep2000                  
   VRHFIN =Fe:  d7 s1                                                           
   LEXCH  = PE                                                                  
   EATOM  =   594.3153 eV,   43.6809 Ry                                         
                                                                                
   TITEL  = PAW_PBE Fe 06Sep2000                                                
   LULTRA =        F    use ultrasoft PP ?                                      
   IUNSCR =        1    unscreen: 0-lin 1-nonlin 2-no                           
   RPACOR =    2.000    partial core radius                                     
   POMASS =   55.847; ZVAL   =    8.000    mass and valenz                      
   RCORE  =    2.300    outmost cutoff radius                                   
   RWIGS  =    2.460; RWIGS  =    1.302    wigner-seitz radius (au A)           
   ENMAX  =  267.882; ENMIN  =  200.911 eV                                      
   RCLOC  =    1.701    cutoff for local pot                                    
   LCOR   =        T    correct aug charges                                     
   LPAW   =        T    paw PP                                                  
   EAUG   =  511.368                                                            
   DEXC   =    0.000                                                            
   RMAX   =    2.356    core radius for proj-oper                               
   RAUG   =    1.300    factor for augmentation sphere                          
   RDEP   =    2.442    radius for radial grids                                 
   RDEPT  =    1.890    core radius for aug-charge                              
                                                                                
   Atomic configuration                                                         
    9 entries                                                                   
     n  l   j            E        occ.                                          
     1  0  0.50     -6993.8440   2.0000                                         
     2  0  0.50      -814.6047   2.0000                                         
     2  1  1.50      -693.3689   6.0000                                         
     3  0  0.50       -89.4732   2.0000                                         
     3  1  1.50       -55.6373   6.0000                                         
     3  2  2.50        -3.8151   7.0000                                         
     4  0  0.50        -4.2551   1.0000                                         
     4  1  1.50        -3.4015   0.0000                                         
     4  3  2.50        -1.3606   0.0000                                         
   Description                                                                  
     l       E           TYP  RCUT    TYP  RCUT                                 
     2     -3.8151135     23  2.300                                             
     2     -5.1756961     23  2.300                                             
     0     -4.2550963     23  2.300                                             
     0      7.2035603     23  2.300                                             
     1     -2.7211652     23  2.300                                             
     1     18.4316424     23  2.300                                             
  local pseudopotential read in
  partial core-charges read in
  partial kinetic energy density read in
  atomic valenz-charges read in
  non local Contribution for L=           2  read in
    real space projection operators read in
  non local Contribution for L=           2  read in
    real space projection operators read in
  non local Contribution for L=           0  read in
    real space projection operators read in
  non local Contribution for L=           0  read in
    real space projection operators read in
  non local Contribution for L=           1  read in
    real space projection operators read in
  non local Contribution for L=           1  read in
    real space projection operators read in
    PAW grid and wavefunctions read in
 
   number of l-projection  operators is LMAX  =           6
   number of lm-projection operators is LMMAX =          18
 
  PAW_PBE Fe 06Sep2000                  :
 energy of atom  1       EATOM= -594.3153
 kinetic energy error for atom=    0.0026 (will be added to EATOM!!)
 
 
 POSCAR: BCC Fe                                  
  positions in cartesian coordinates
  No initial velocities read in
 exchange correlation table for  LEXCH =        8
   RHO(1)=    0.500       N(1)  =     2000
   RHO(2)=  100.500       N(2)  =     4000
 


--------------------------------------------------------------------------------------------------------


 ion  position               nearest neighbor table
   1  0.000  0.000  0.000-   2 2.48   2 2.48   2 2.48   2 2.48   2 2.48   2 2.48   2 2.48   2 2.48

   2  0.500  0.500  0.500-   1 2.48   1 2.48   1 2.48   1 2.48   1 2.48   1 2.48   1 2.48   1 2.48

 

IMPORTANT INFORMATION: All symmetrisations will be switched off!
NOSYMM: (Re-)initialisation of all symmetry stuff for point group C_1.

 
 
 KPOINTS: Automatic mesh                          

Automatic generation of k-mesh.
Space group operators:
 irot       det(A)        alpha          n_x          n_y          n_z        tau_x        tau_y        tau_z
    1     1.000000     0.000001     1.000000     0.000000     0.000000     0.000000     0.000000     0.000000
 
 Subroutine IBZKPT returns following result:
 ===========================================
 
 Found    108 irreducible k-points:
 
 Following reciprocal coordinates:
            Coordinates               Weight
  0.083333  0.083333  0.083333      2.000000
  0.250000  0.083333  0.083333      2.000000
  0.416667  0.083333  0.083333      2.000000
 -0.416667  0.083333  0.083333      2.000000
 -0.250000  0.083333  0.083333      2.000000
 -0.083333  0.083333  0.083333      2.000000
  0.083333  0.250000  0.083333      2.000000
  0.250000  0.250000  0.083333      2.000000
  0.416667  0.250000  0.083333      2.000000
 -0.416667  0.250000  0.083333      2.000000
 -0.250000  0.250000  0.083333      2.000000
 -0.083333  0.250000  0.083333      2.000000
  0.083333  0.416667  0.083333      2.000000
  0.250000  0.416667  0.083333      2.000000
  0.416667  0.416667  0.083333      2.000000
 -0.416667  0.416667  0.083333      2.000000
 -0.250000  0.416667  0.083333      2.000000
 -0.083333  0.416667  0.083333      2.000000
  0.083333 -0.416667  0.083333      2.000000
  0.250000 -0.416667  0.083333      2.000000
  0.416667 -0.416667  0.083333      2.000000
 -0.416667 -0.416667  0.083333      2.000000
 -0.250000 -0.416667  0.083333      2.000000
 -0.083333 -0.416667  0.083333      2.000000
  0.083333 -0.250000  0.083333      2.000000
  0.250000 -0.250000  0.083333      2.000000
  0.416667 -0.250000  0.083333      2.000000
 -0.416667 -0.250000  0.083333      2.000000
 -0.250000 -0.250000  0.083333      2.000000
 -0.083333 -0.250000  0.083333      2.000000
  0.083333 -0.083333  0.083333      2.000000
  0.250000 -0.083333  0.083333      2.000000
  0.416667 -0.083333  0.083333      2.000000
 -0.416667 -0.083333  0.083333      2.000000
 -0.250000 -0.083333  0.083333      2.000000
 -0.083333 -0.083333  0.083333      2.000000
  0.083333  0.083333  0.250000      2.000000
  0.250000  0.083333  0.250000      2.000000
  0.416667  0.083333  0.250000      2.000000
 -0.416667  0.083333  0.250000      2.000000
 -0.250000  0.083333  0.250000      2.000000
 -0.083333  0.083333  0.250000      2.000000
  0.083333  0.250000  0.250000      2.000000
  0.250000  0.250000  0.250000      2.000000
  0.416667  0.250000  0.250000      2.000000
 -0.416667  0.250000  0.250000      2.000000
 -0.250000  0.250000  0.250000      2.000000
 -0.083333  0.250000  0.250000      2.000000
  0.083333  0.416667  0.250000      2.000000
  0.250000  0.416667  0.250000      2.000000
  0.416667  0.416667  0.250000      2.000000
 -0.416667  0.416667  0.250000      2.000000
 -0.250000  0.416667  0.250000      2.000000
 -0.083333  0.416667  0.250000      2.000000
  0.083333 -0.416667  0.250000      2.000000
  0.250000 -0.416667  0.250000      2.000000
  0.416667 -0.416667  0.250000      2.000000
 -0.416667 -0.416667  0.250000      2.000000
 -0.250000 -0.416667  0.250000      2.000000
 -0.083333 -0.416667  0.250000      2.000000
  0.083333 -0.250000  0.250000      2.000000
  0.250000 -0.250000  0.250000      2.000000
  0.416667 -0.250000  0.250000      2.000000
 -0.416667 -0.250000  0.250000      2.000000
 -0.250000 -0.250000  0.250000      2.000000
 -0.083333 -0.250000  0.250000      2.000000
  0.083333 -0.083333  0.250000      2.000000
  0.250000 -0.083333  0.250000      2.000000
  0.416667 -0.083333  0.250000      2.000000
 -0.416667 -0.083333  0.250000      2.000000
 -0.250000 -0.083333  0.250000      2.000000
 -0.083333 -0.083333  0.250000      2.000000
  0.083333  0.083333  0.416667      2.000000
  0.250000  0.083333  0.416667      2.000000
  0.416667  0.083333  0.416667      2.000000
 -0.416667  0.083333  0.416667      2.000000
 -0.250000  0.083333  0.416667      2.000000
 -0.083333  0.083333  0.416667      2.000000
  0.083333  0.250000  0.416667      2.000000
  0.250000  0.250000  0.416667      2.000000
  0.416667  0.250000  0.416667      2.000000
 -0.416667  0.250000  0.416667      2.000000
 -0.250000  0.250000  0.416667      2.000000
 -0.083333  0.250000  0.416667      2.000000
  0.083333  0.416667  0.416667      2.000000
  0.250000  0.416667  0.416667      2.000000
  0.416667  0.416667  0.416667      2.000000
 -0.416667  0.416667  0.416667      2.000000
 -0.250000  0.416667  0.416667      2.000000
 -0.083333  0.416667  0.416667      2.000000
  0.083333 -0.416667  0.416667      2.000000
  0.250000 -0.416667  0.416667      2.000000
  0.416667 -0.416667  0.416667      2.000000
 -0.416667 -0.416667  0.416667      2.000000
 -0.250000 -0.416667  0.416667      2.000000
 -0.083333 -0.416667  0.416667      2.000000
  0.083333 -0.250000  0.416667      2.000000
  0.250000 -0.250000  0.416667      2.000000
  0.416667 -0.250000  0.416667      2.000000
 -0.416667 -0.250000  0.416667      2.000000
 -0.250000 -0.250000  0.416667      2.000000
 -0.083333 -0.250000  0.416667      2.000000
  0.083333 -0.083333  0.416667      2.000000
  0.250000 -0.083333  0.416667      2.000000
  0.416667 -0.083333  0.416667      2.000000
 -0.416667 -0.083333  0.416667      2.000000
 -0.250000 -0.083333  0.416667      2.000000
 -0.083333 -0.083333  0.416667      2.000000
 
 Following cartesian coordinates:
            Coordinates               Weight
  0.083333  0.083333  0.083333      2.000000
  0.250000  0.083333  0.083333      2.000000
  0.416667  0.083333  0.083333      2.000000
 -0.416667  0.083333  0.083333      2.000000
 -0.250000  0.083333  0.083333      2.000000
 -0.083333  0.083333  0.083333      2.000000
  0.083333  0.250000  0.083333      2.000000
  0.250000  0.250000  0.083333      2.000000
  0.416667  0.250000  0.083333      2.000000
 -0.416667  0.250000  0.083333      2.000000
 -0.250000  0.250000  0.083333      2.000000
 -0.083333  0.250000  0.083333      2.000000
  0.083333  0.416667  0.083333      2.000000
  0.250000  0.416667  0.083333      2.000000
  0.416667  0.416667  0.083333      2.000000
 -0.416667  0.416667  0.083333      2.000000
 -0.250000  0.416667  0.083333      2.000000
 -0.083333  0.416667  0.083333      2.000000
  0.083333 -0.416667  0.083333      2.000000
  0.250000 -0.416667  0.083333      2.000000
  0.416667 -0.416667  0.083333      2.000000
 -0.416667 -0.416667  0.083333      2.000000
 -0.250000 -0.416667  0.083333      2.000000
 -0.083333 -0.416667  0.083333      2.000000
  0.083333 -0.250000  0.083333      2.000000
  0.250000 -0.250000  0.083333      2.000000
  0.416667 -0.250000  0.083333      2.000000
 -0.416667 -0.250000  0.083333      2.000000
 -0.250000 -0.250000  0.083333      2.000000
 -0.083333 -0.250000  0.083333      2.000000
  0.083333 -0.083333  0.083333      2.000000
  0.250000 -0.083333  0.083333      2.000000
  0.416667 -0.083333  0.083333      2.000000
 -0.416667 -0.083333  0.083333      2.000000
 -0.250000 -0.083333  0.083333      2.000000
 -0.083333 -0.083333  0.083333      2.000000
  0.083333  0.083333  0.250000      2.000000
  0.250000  0.083333  0.250000      2.000000
  0.416667  0.083333  0.250000      2.000000
 -0.416667  0.083333  0.250000      2.000000
 -0.250000  0.083333  0.250000      2.000000
 -0.083333  0.083333  0.250000      2.000000
  0.083333  0.250000  0.250000      2.000000
  0.250000  0.250000  0.250000      2.000000
  0.416667  0.250000  0.250000      2.000000
 -0.416667  0.250000  0.250000      2.000000
 -0.250000  0.250000  0.250000      2.000000
 -0.083333  0.250000  0.250000      2.000000
  0.083333  0.416667  0.250000      2.000000
  0.250000  0.416667  0.250000      2.000000
  0.416667  0.416667  0.250000      2.000000
 -0.416667  0.416667  0.250000      2.000000
 -0.250000  0.416667  0.250000      2.000000
 -0.083333  0.416667  0.250000      2.000000
  0.083333 -0.416667  0.250000      2.000000
  0.250000 -0.416667  0.250000      2.000000
  0.416667 -0.416667  0.250000      2.000000
 -0.416667 -0.416667  0.250000      2.000000
 -0.250000 -0.416667  0.250000      2.000000
 -0.083333 -0.416667  0.250000      2.000000
  0.083333 -0.250000  0.250000      2.000000
  0.250000 -0.250000  0.250000      2.000000
  0.416667 -0.250000  0.250000      2.000000
 -0.416667 -0.250000  0.250000      2.000000
 -0.250000 -0.250000  0.250000      2.000000
 -0.083333 -0.250000  0.250000      2.000000
  0.083333 -0.083333  0.250000      2.000000
  0.250000 -0.083333  0.250000      2.000000
  0.416667 -0.083333  0.250000      2.000000
 -0.416667 -0.083333  0.250000      2.000000
 -0.250000 -0.083333  0.250000      2.000000
 -0.083333 -0.083333  0.250000      2.000000
  0.083333  0.083333  0.416667      2.000000
  0.250000  0.083333  0.416667      2.000000
  0.416667  0.083333  0.416667      2.000000
 -0.416667  0.083333  0.416667      2.000000
 -0.250000  0.083333  0.416667      2.000000
 -0.083333  0.083333  0.416667      2.000000
  0.083333  0.250000  0.416667      2.000000
  0.250000  0.250000  0.416667      2.000000
  0.416667  0.250000  0.416667      2.000000
 -0.416667  0.250000  0.416667      2.000000
 -0.250000  0.250000  0.416667      2.000000
 -0.083333  0.250000  0.416667      2.000000
  0.083333  0.416667  0.416667      2.000000
  0.250000  0.416667  0.416667      2.000000
  0.416667  0.416667  0.416667      2.000000
 -0.416667  0.416667  0.416667      2.000000
 -0.250000  0.416667  0.416667      2.000000
 -0.083333  0.416667  0.416667      2.000000
  0.083333 -0.416667  0.416667      2.000000
  0.250000 -0.416667  0.416667      2.000000
  0.416667 -0.416667  0.416667      2.000000
 -0.416667 -0.416667  0.416667      2.000000
 -0.250000 -0.416667  0.416667      2.000000
 -0.083333 -0.416667  0.416667      2.000000
  0.083333 -0.250000  0.416667      2.000000
  0.250000 -0.250000  0.416667      2.000000
  0.416667 -0.250000  0.416667      2.000000
 -0.416667 -0.250000  0.416667      2.000000
 -0.250000 -0.250000  0.416667      2.000000
 -0.083333 -0.250000  0.416667      2.000000
  0.083333 -0.083333  0.416667      2.000000
  0.250000 -0.083333  0.416667      2.000000
  0.416667 -0.083333  0.416667      2.000000
 -0.416667 -0.083333  0.416667      2.000000
 -0.250000 -0.083333  0.416667      2.000000
 -0.083333 -0.083333  0.416667      2.000000
 


--------------------------------------------------------------------------------------------------------




 Dimension of arrays:
   k-points           NKPTS =    108   k-points in BZ     NKDIM =    108   number of bands    NBANDS=     32
   number of dos      NEDOS =    301   number of ions     NIONS =      2
   non local maximal  LDIM  =      6   non local SUM 2l+1 LMDIM =     18
   total plane-waves  NPLWV =   4096
   max r-space proj   IRMAX =      1   max aug-charges    IRDMAX=   6436
   dimension x,y,z NGX =    16 NGY =   16 NGZ =   16
   dimension x,y,z NGXF=    32 NGYF=   32 NGZF=   32
   support grid    NGXF=    32 NGYF=   32 NGZF=   32
   ions per type =               2
 NGX,Y,Z   is equivalent  to a cutoff of   9.30,  9.30,  9.30 a.u.
 NGXF,Y,Z  is equivalent  to a cutoff of  18.60, 18.60, 18.60 a.u.


 I would recommend the setting:
   dimension x,y,z NGX =    16 NGY =   16 NGZ =   16
 SYSTEM =  Fe Bulk                                 
 POSCAR =  BCC Fe                                  

 Startparameter for this run:
   NWRITE =      2    write-flag & timer
   PREC   = normal    normal or accurate (medium, high low for compatibility)
   ISTART =      0    job   : 0-new  1-cont  2-samecut
   ICHARG =      2    charge: 1-file 2-atom 10-const
   ISPIN  =      2    spin polarized calculation?
   LNONCOLLINEAR =      F non collinear calculations
   LSORBIT =      F    spin-orbit coupling
   INIWAV =      1    electr: 0-lowe 1-rand  2-diag
   LASPH  =      F    aspherical Exc in radial PAW
   METAGGA=      F    non-selfconsistent MetaGGA calc.

 Electronic Relaxation 1
   ENCUT  =  500.0 eV  36.75 Ry    6.06 a.u.   5.21  5.21  5.21*2*pi/ulx,y,z
   ENINI  =  500.0     initial cutoff
   ENAUG  =  511.4 eV  augmentation charge cutoff
   NELM   =     60;   NELMIN=  6; NELMDL= -5     # of ELM steps 
   EDIFF  = 0.1E-04   stopping-criterion for ELM
   LREAL  =      F    real-space projection
   NLSPLINE    = F    spline interpolate recip. space projectors
   LCOMPAT=      F    compatible to vasp.4.4
   GGA_COMPAT  = T    GGA compatible to vasp.4.4-vasp.4.6
   LMAXPAW     = -100 max onsite density
   LMAXMIX     =    2 max onsite mixed and CHGCAR
   VOSKOWN=      0    Vosko Wilk Nusair interpolation
   ROPT   =    0.00000
 Ionic relaxation
   EDIFFG = -.1E-01   stopping-criterion for IOM
   NSW    =     20    number of steps for IOM
   NBLOCK =      1;   KBLOCK =     20    inner block; outer block 
   IBRION =      2    ionic relax: 0-MD 1-quasi-New 2-CG
   NFREE  =      1    steps in history (QN), initial steepest desc. (CG)
   ISIF   =      2    stress and relaxation
   IWAVPR =     11    prediction:  0-non 1-charg 2-wave 3-comb
   ISYM   =      0    0-nonsym 1-usesym 2-fastsym
   LCORR  =      T    Harris-Foulkes like correction to forces

   POTIM  = 0.5000    time-step for ionic-motion
   TEIN   =    0.0    initial temperature
   TEBEG  =    0.0;   TEEND  =   0.0 temperature during run
   SMASS  =  -3.00    Nose mass-parameter (am)
   estimated Nose-frequenzy (Omega)   =  0.10E-29 period in steps =****** mass=  -0.187E-27a.u.
   SCALEE = 1.0000    scale energy and forces
   NPACO  =    256;   APACO  = 16.0  distance and # of slots for P.C.
   PSTRESS=    0.0 pullay stress

  Mass of Ions in am
   POMASS =  55.85
  Ionic Valenz
   ZVAL   =   8.00
  Atomic Wigner-Seitz radii
   RWIGS  =  -1.00
  virtual crystal weights 
   VCA    =   1.00
   NELECT =      16.0000    total number of electrons
   NUPDOWN=      -1.0000    fix difference up-down

 DOS related values:
   EMIN   =  10.00;   EMAX   =-10.00  energy-range for DOS
   EFERMI =   0.00
   ISMEAR =     1;   SIGMA  =   0.20  broadening in eV -4-tet -1-fermi 0-gaus

 Electronic relaxation 2 (details)
   IALGO  =     38    algorithm
   LDIAG  =      T    sub-space diagonalisation (order eigenvalues)
   LSUBROT=      F    optimize rotation matrix (better conditioning)
   TURBO    =      0    0=normal 1=particle mesh
   IRESTART =      0    0=no restart 2=restart with 2 vectors
   NREBOOT  =      0    no. of reboots
   NMIN     =      0    reboot dimension
   EREF     =   0.00    reference energy to select bands
   IMIX   =      4    mixing-type and parameters
     AMIX     =   0.40;   BMIX     =  1.00
     AMIX_MAG =   1.60;   BMIX_MAG =  1.00
     AMIN     =   0.10
     WC   =   100.;   INIMIX=   1;  MIXPRE=   1;  MAXMIX=  40

 Intra band minimization:
   WEIMIN = 0.0010     energy-eigenvalue tresh-hold
   EBREAK =  0.78E-07  absolut break condition
   DEPER  =   0.30     relativ break condition  

   TIME   =   0.40     timestep for ELM

  volume/ion in A,a.u.               =      11.70        78.93
  Fermi-wavevector in a.u.,A,eV,Ry     =   1.442388  2.725718 28.306695  2.080483
  Thomas-Fermi vector in A             =   2.560914
 
 Write flags
   LWAVE  =      F    write WAVECAR
   LCHARG =      F    write CHGCAR
   LVTOT  =      F    write LOCPOT, total local potential
   LVHAR  =      F    write LOCPOT, Hartree potential only
   LELF   =      F    write electronic localiz. function (ELF)
   LORBIT =      0    0 simple, 1 ext, 2 COOP (PROOUT)


 Dipole corrections
   LMONO  =      F    monopole corrections only (constant potential shift)
   LDIPOL =      F    correct potential (dipole corrections)
   IDIPOL =      0    1-x, 2-y, 3-z, 4-all directions 
   EPSILON=  1.0000000 bulk dielectric constant

 Exchange correlation treatment:
   GGA     =    PE    GGA type
   LEXCH   =     8    internal setting for exchange type
   VOSKOWN=      0    Vosko Wilk Nusair interpolation
   LHFCALC =     F    Hartree Fock is set to
   LHFONE  =     F    Hartree Fock one center treatment
   AEXX    =    0.0000 exact exchange contribution

 Linear response parameters
   LEPSILON=     F    determine dielectric tensor
   LRPA    =     F    only Hartree local field effects (RPA)
   LNABLA  =     F    use nabla operator in PAW spheres
   LVEL    =     F    velocity operator in full k-point grid
   LINTERFAST=   F  fast interpolation
   KINTER  =     0    interpolate to denser k-point grid
   CSHIFT  =0.1000    complex shift for real part using Kramers Kronig
   OMEGAMAX=  -1.0    maximum frequency
   DEG_THRESHOLD= 0.2000000E-02 threshold for treating states as degnerate
   RTIME   =    0.100 relaxation time in fs

 Orbital magnetization related:
   ORBITALMAG=     F  switch on orbital magnetization
   LCHIMAG   =     F  perturbation theory with respect to B field
   DQ        =  0.001000  dq finite difference perturbation B field



--------------------------------------------------------------------------------------------------------


 conjugate gradient relaxation of ions
 charge density and potential will be updated during run
 spin polarized calculation
 Variant of blocked Davidson
 Davidson routine will perform the subspace rotation
 perform sub-space diagonalisation
    after iterative eigenvector-optimisation
 modified Broyden-mixing scheme, WC =      100.0
 initial mixing is a Kerker type mixing with AMIX =  0.4000 and BMIX =      1.0000
 Hartree-type preconditioning will be used
 using additional bands           24
 reciprocal scheme for non local part
 use partial core corrections
 calculate Harris-corrections to forces 
   (improved forces if not selfconsistent)
 use gradient corrections 
 use of overlap-Matrix (Vanderbilt PP)
 Methfessel and Paxton  Order N= 1 SIGMA  =   0.20


--------------------------------------------------------------------------------------------------------


  energy-cutoff  :      500.00
  volume of cell :       23.39
      direct lattice vectors                 reciprocal lattice vectors
     2.860000000  0.000000000  0.000000000     0.349650350  0.000000000  0.000000000
     0.000000000  2.860000000  0.000000000     0.000000000  0.349650350  0.000000000
     0.000000000  0.000000000  2.860000000     0.000000000  0.000000000  0.349650350

  length of vectors
     2.860000000  2.860000000  2.860000000     0.349650350  0.349650350  0.349650350


 
 k-points in units of 2pi/SCALE and weight: Automatic mesh                          
   0.08333333  0.08333333  0.08333333       0.009
   0.25000000  0.08333333  0.08333333       0.009
   0.41666667  0.08333333  0.08333333       0.009
  -0.41666667  0.08333333  0.08333333       0.009
  -0.25000000  0.08333333  0.08333333       0.009
  -0.08333333  0.08333333  0.08333333       0.009
   0.08333333  0.25000000  0.08333333       0.009
   0.25000000  0.25000000  0.08333333       0.009
   0.41666667  0.25000000  0.08333333       0.009
  -0.41666667  0.25000000  0.08333333       0.009
  -0.25000000  0.25000000  0.08333333       0.009
  -0.08333333  0.25000000  0.08333333       0.009
   0.08333333  0.41666667  0.08333333       0.009
   0.25000000  0.41666667  0.08333333       0.009
   0.41666667  0.41666667  0.08333333       0.009
  -0.41666667  0.41666667  0.08333333       0.009
  -0.25000000  0.41666667  0.08333333       0.009
  -0.08333333  0.41666667  0.08333333       0.009
   0.08333333 -0.41666667  0.08333333       0.009
   0.25000000 -0.41666667  0.08333333       0.009
   0.41666667 -0.41666667  0.08333333       0.009
  -0.41666667 -0.41666667  0.08333333       0.009
  -0.25000000 -0.41666667  0.08333333       0.009
  -0.08333333 -0.41666667  0.08333333       0.009
   0.08333333 -0.25000000  0.08333333       0.009
   0.25000000 -0.25000000  0.08333333       0.009
   0.41666667 -0.25000000  0.08333333       0.009
  -0.41666667 -0.25000000  0.08333333       0.009
  -0.25000000 -0.25000000  0.08333333       0.009
  -0.08333333 -0.25000000  0.08333333       0.009
   0.08333333 -0.08333333  0.08333333       0.009
   0.25000000 -0.08333333  0.08333333       0.009
   0.41666667 -0.08333333  0.08333333       0.009
  -0.41666667 -0.08333333  0.08333333       0.009
  -0.25000000 -0.08333333  0.08333333       0.009
  -0.08333333 -0.08333333  0.08333333       0.009
   0.08333333  0.08333333  0.25000000       0.009
   0.25000000  0.08333333  0.25000000       0.009
   0.41666667  0.08333333  0.25000000       0.009
  -0.41666667  0.08333333  0.25000000       0.009
  -0.25000000  0.08333333  0.25000000       0.009
  -0.08333333  0.08333333  0.25000000       0.009
   0.08333333  0.25000000  0.25000000       0.009
   0.25000000  0.25000000  0.25000000       0.009
   0.41666667  0.25000000  0.25000000       0.009
  -0.41666667  0.25000000  0.25000000       0.009
  -0.25000000  0.25000000  0.25000000       0.009
  -0.08333333  0.25000000  0.25000000       0.009
   0.08333333  0.41666667  0.25000000       0.009
   0.25000000  0.41666667  0.25000000       0.009
   0.41666667  0.41666667  0.25000000       0.009
  -0.41666667  0.41666667  0.25000000       0.009
  -0.25000000  0.41666667  0.25000000       0.009
  -0.08333333  0.41666667  0.25000000       0.009
   0.08333333 -0.41666667  0.25000000       0.009
   0.25000000 -0.41666667  0.25000000       0.009
   0.41666667 -0.41666667  0.25000000       0.009
  -0.41666667 -0.41666667  0.25000000       0.009
  -0.25000000 -0.41666667  0.25000000       0.009
  -0.08333333 -0.41666667  0.25000000       0.009
   0.08333333 -0.25000000  0.25000000       0.009
   0.25000000 -0.25000000  0.25000000       0.009
   0.41666667 -0.25000000  0.25000000       0.009
  -0.41666667 -0.25000000  0.25000000       0.009
  -0.25000000 -0.25000000  0.25000000       0.009
  -0.08333333 -0.25000000  0.25000000       0.009
   0.08333333 -0.08333333  0.25000000       0.009
   0.25000000 -0.08333333  0.25000000       0.009
   0.41666667 -0.08333333  0.25000000       0.009
  -0.41666667 -0.08333333  0.25000000       0.009
  -0.25000000 -0.08333333  0.25000000       0.009
  -0.08333333 -0.08333333  0.25000000       0.009
   0.08333333  0.08333333  0.41666667       0.009
   0.25000000  0.08333333  0.41666667       0.009
   0.41666667  0.08333333  0.41666667       0.009
  -0.41666667  0.08333333  0.41666667       0.009
  -0.25000000  0.08333333  0.41666667       0.009
  -0.08333333  0.08333333  0.41666667       0.009
   0.08333333  0.25000000  0.41666667       0.009
   0.25000000  0.25000000  0.41666667       0.009
   0.41666667  0.25000000  0.41666667       0.009
  -0.41666667  0.25000000  0.41666667       0.009
  -0.25000000  0.25000000  0.41666667       0.009
  -0.08333333  0.25000000  0.41666667       0.009
   0.08333333  0.41666667  0.41666667       0.009
   0.25000000  0.41666667  0.41666667       0.009
   0.41666667  0.41666667  0.41666667       0.009
  -0.41666667  0.41666667  0.41666667       0.009
  -0.25000000  0.41666667  0.41666667       0.009
  -0.08333333  0.41666667  0.41666667       0.009
   0.08333333 -0.41666667  0.41666667       0.009
   0.25000000 -0.41666667  0.41666667       0.009
   0.41666667 -0.41666667  0.41666667       0.009
  -0.41666667 -0.41666667  0.41666667       0.009
  -0.25000000 -0.41666667  0.41666667       0.009
  -0.08333333 -0.41666667  0.41666667       0.009
   0.08333333 -0.25000000  0.41666667       0.009
   0.25000000 -0.25000000  0.41666667       0.009
   0.41666667 -0.25000000  0.41666667       0.009
  -0.41666667 -0.25000000  0.41666667       0.009
  -0.25000000 -0.25000000  0.41666667       0.009
  -0.08333333 -0.25000000  0.41666667       0.009
   0.08333333 -0.08333333  0.41666667       0.009
   0.25000000 -0.08333333  0.41666667       0.009
   0.41666667 -0.08333333  0.41666667       0.009
  -0.41666667 -0.08333333  0.41666667       0.009
  -0.25000000 -0.08333333  0.41666667       0.009
  -0.08333333 -0.08333333  0.41666667       0.009
 
 k-points in reciprocal lattice and weights: Automatic mesh                          
   0.08333333  0.08333333  0.08333333       0.009
   0.25000000  0.08333333  0.08333333       0.009
   0.41666667  0.08333333  0.08333333       0.009
  -0.41666667  0.08333333  0.08333333       0.009
  -0.25000000  0.08333333  0.08333333       0.009
  -0.08333333  0.08333333  0.08333333       0.009
   0.08333333  0.25000000  0.08333333       0.009
   0.25000000  0.25000000  0.08333333       0.009
   0.41666667  0.25000000  0.08333333       0.009
  -0.41666667  0.25000000  0.08333333       0.009
  -0.25000000  0.25000000  0.08333333       0.009
  -0.08333333  0.25000000  0.08333333       0.009
   0.08333333  0.41666667  0.08333333       0.009
   0.25000000  0.41666667  0.08333333       0.009
   0.41666667  0.41666667  0.08333333       0.009
  -0.41666667  0.41666667  0.08333333       0.009
  -0.25000000  0.41666667  0.08333333       0.009
  -0.08333333  0.41666667  0.08333333       0.009
   0.08333333 -0.41666667  0.08333333       0.009
   0.25000000 -0.41666667  0.08333333       0.009
   0.41666667 -0.41666667  0.08333333       0.009
  -0.41666667 -0.41666667  0.08333333       0.009
  -0.25000000 -0.41666667  0.08333333       0.009
  -0.08333333 -0.41666667  0.08333333       0.009
   0.08333333 -0.25000000  0.08333333       0.009
   0.25000000 -0.25000000  0.08333333       0.009
   0.41666667 -0.25000000  0.08333333       0.009
  -0.41666667 -0.25000000  0.08333333       0.009
  -0.25000000 -0.25000000  0.08333333       0.009
  -0.08333333 -0.25000000  0.08333333       0.009
   0.08333333 -0.08333333  0.08333333       0.009
   0.25000000 -0.08333333  0.08333333       0.009
   0.41666667 -0.08333333  0.08333333       0.009
  -0.41666667 -0.08333333  0.08333333       0.009
  -0.25000000 -0.08333333  0.08333333       0.009
  -0.08333333 -0.08333333  0.08333333       0.009
   0.08333333  0.08333333  0.25000000       0.009
   0.25000000  0.08333333  0.25000000       0.009
   0.41666667  0.08333333  0.25000000       0.009
  -0.41666667  0.08333333  0.25000000       0.009
  -0.25000000  0.08333333  0.25000000       0.009
  -0.08333333  0.08333333  0.25000000       0.009
   0.08333333  0.25000000  0.25000000       0.009
   0.25000000  0.25000000  0.25000000       0.009
   0.41666667  0.25000000  0.25000000       0.009
  -0.41666667  0.25000000  0.25000000       0.009
  -0.25000000  0.25000000  0.25000000       0.009
  -0.08333333  0.25000000  0.25000000       0.009
   0.08333333  0.41666667  0.25000000       0.009
   0.25000000  0.41666667  0.25000000       0.009
   0.41666667  0.41666667  0.25000000       0.009
  -0.41666667  0.41666667  0.25000000       0.009
  -0.25000000  0.41666667  0.25000000       0.009
  -0.08333333  0.41666667  0.25000000       0.009
   0.08333333 -0.41666667  0.25000000       0.009
   0.25000000 -0.41666667  0.25000000       0.009
   0.41666667 -0.41666667  0.25000000       0.009
  -0.41666667 -0.41666667  0.25000000       0.009
  -0.25000000 -0.41666667  0.25000000       0.009
  -0.08333333 -0.41666667  0.25000000       0.009
   0.08333333 -0.25000000  0.25000000       0.009
   0.25000000 -0.25000000  0.25000000       0.009
   0.41666667 -0.25000000  0.25000000       0.009
  -0.41666667 -0.25000000  0.25000000       0.009
  -0.25000000 -0.25000000  0.25000000       0.009
  -0.08333333 -0.25000000  0.25000000       0.009
   0.08333333 -0.08333333  0.25000000       0.009
   0.25000000 -0.08333333  0.25000000       0.009
   0.41666667 -0.08333333  0.25000000       0.009
  -0.41666667 -0.08333333  0.25000000       0.009
  -0.25000000 -0.08333333  0.25000000       0.009
  -0.08333333 -0.08333333  0.25000000       0.009
   0.08333333  0.08333333  0.41666667       0.009
   0.25000000  0.08333333  0.41666667       0.009
   0.41666667  0.08333333  0.41666667       0.009
  -0.41666667  0.08333333  0.41666667       0.009
  -0.25000000  0.08333333  0.41666667       0.009
  -0.08333333  0.08333333  0.41666667       0.009
   0.08333333  0.25000000  0.41666667       0.009
   0.25000000  0.25000000  0.41666667       0.009
   0.41666667  0.25000000  0.41666667       0.009
  -0.41666667  0.25000000  0.41666667       0.009
  -0.25000000  0.25000000  0.41666667       0.009
  -0.08333333  0.25000000  0.41666667       0.009
   0.08333333  0.41666667  0.41666667       0.009
   0.25000000  0.41666667  0.41666667       0.009
   0.41666667  0.41666667  0.41666667       0.009
  -0.41666667  0.41666667  0.41666667       0.009
  -0.25000000  0.41666667  0.41666667       0.009
  -0.08333333  0.41666667  0.41666667       0.009
   0.08333333 -0.41666667  0.41666667       0.009
   0.25000000 -0.41666667  0.41666667       0.009
   0.41666667 -0.41666667  0.41666667       0.009
  -0.41666667 -0.41666667  0.41666667       0.009
  -0.25000000 -0.41666667  0.41666667       0.009
  -0.08333333 -0.41666667  0.41666667       0.009
   0.08333333 -0.25000000  0.41666667       0.009
   0.25000000 -0.25000000  0.41666667       0.009
   0.41666667 -0.25000000  0.41666667       0.009
  -0.41666667 -0.25000000  0.41666667       0.009
  -0.25000000 -0.25000000  0.41666667       0.009
  -0.08333333 -0.25000000  0.41666667       0.009
   0.08333333 -0.08333333  0.41666667       0.009
   0.25000000 -0.08333333  0.41666667       0.009
   0.41666667 -0.08333333  0.41666667       0.009
  -0.41666667 -0.08333333  0.41666667       0.009
  -0.25000000 -0.08333333  0.41666667       0.009
  -0.08333333 -0.08333333  0.41666667       0.009
 
 position of ions in fractional coordinates (direct lattice) 
   0.00000000  0.00000000  0.00000000
   0.50000000  0.50000000  0.50000000
 
 position of ions in cartesian coordinates  (Angst):
   0.00000000  0.00000000  0.00000000
   1.43000000  1.43000000  1.43000000
 


--------------------------------------------------------------------------------------------------------


 k-point  1 :   0.0833 0.0833 0.0833  plane waves:     597
 k-point  2 :   0.2500 0.0833 0.0833  plane waves:     592
 k-point  3 :   0.4167 0.0833 0.0833  plane waves:     599
 k-point  4 :  -0.4167 0.0833 0.0833  plane waves:     599
 k-point  5 :  -0.2500 0.0833 0.0833  plane waves:     592
 k-point  6 :  -0.0833 0.0833 0.0833  plane waves:     597
 k-point  7 :   0.0833 0.2500 0.0833  plane waves:     592
 k-point  8 :   0.2500 0.2500 0.0833  plane waves:     589
 k-point  9 :   0.4167 0.2500 0.0833  plane waves:     593
 k-point 10 :  -0.4167 0.2500 0.0833  plane waves:     593
 k-point 11 :  -0.2500 0.2500 0.0833  plane waves:     589
 k-point 12 :  -0.0833 0.2500 0.0833  plane waves:     592
 k-point 13 :   0.0833 0.4167 0.0833  plane waves:     599
 k-point 14 :   0.2500 0.4167 0.0833  plane waves:     593
 k-point 15 :   0.4167 0.4167 0.0833  plane waves:     596
 k-point 16 :  -0.4167 0.4167 0.0833  plane waves:     596
 k-point 17 :  -0.2500 0.4167 0.0833  plane waves:     593
 k-point 18 :  -0.0833 0.4167 0.0833  plane waves:     599
 k-point 19 :   0.0833-0.4167 0.0833  plane waves:     599
 k-point 20 :   0.2500-0.4167 0.0833  plane waves:     593
 k-point 21 :   0.4167-0.4167 0.0833  plane waves:     596
 k-point 22 :  -0.4167-0.4167 0.0833  plane waves:     596
 k-point 23 :  -0.2500-0.4167 0.0833  plane waves:     593
 k-point 24 :  -0.0833-0.4167 0.0833  plane waves:     599
 k-point 25 :   0.0833-0.2500 0.0833  plane waves:     592
 k-point 26 :   0.2500-0.2500 0.0833  plane waves:     589
 k-point 27 :   0.4167-0.2500 0.0833  plane waves:     593
 k-point 28 :  -0.4167-0.2500 0.0833  plane waves:     593
 k-point 29 :  -0.2500-0.2500 0.0833  plane waves:     589
 k-point 30 :  -0.0833-0.2500 0.0833  plane waves:     592
 k-point 31 :   0.0833-0.0833 0.0833  plane waves:     597
 k-point 32 :   0.2500-0.0833 0.0833  plane waves:     592
 k-point 33 :   0.4167-0.0833 0.0833  plane waves:     599
 k-point 34 :  -0.4167-0.0833 0.0833  plane waves:     599
 k-point 35 :  -0.2500-0.0833 0.0833  plane waves:     592
 k-point 36 :  -0.0833-0.0833 0.0833  plane waves:     597
 k-point 37 :   0.0833 0.0833 0.2500  plane waves:     592
 k-point 38 :   0.2500 0.0833 0.2500  plane waves:     589
 k-point 39 :   0.4167 0.0833 0.2500  plane waves:     593
 k-point 40 :  -0.4167 0.0833 0.2500  plane waves:     593
 k-point 41 :  -0.2500 0.0833 0.2500  plane waves:     589
 k-point 42 :  -0.0833 0.0833 0.2500  plane waves:     592
 k-point 43 :   0.0833 0.2500 0.2500  plane waves:     589
 k-point 44 :   0.2500 0.2500 0.2500  plane waves:     597
 k-point 45 :   0.4167 0.2500 0.2500  plane waves:     592
 k-point 46 :  -0.4167 0.2500 0.2500  plane waves:     592
 k-point 47 :  -0.2500 0.2500 0.2500  plane waves:     597
 k-point 48 :  -0.0833 0.2500 0.2500  plane waves:     589
 k-point 49 :   0.0833 0.4167 0.2500  plane waves:     593
 k-point 50 :   0.2500 0.4167 0.2500  plane waves:     592
 k-point 51 :   0.4167 0.4167 0.2500  plane waves:     598
 k-point 52 :  -0.4167 0.4167 0.2500  plane waves:     598
 k-point 53 :  -0.2500 0.4167 0.2500  plane waves:     592
 k-point 54 :  -0.0833 0.4167 0.2500  plane waves:     593
 k-point 55 :   0.0833-0.4167 0.2500  plane waves:     593
 k-point 56 :   0.2500-0.4167 0.2500  plane waves:     592
 k-point 57 :   0.4167-0.4167 0.2500  plane waves:     598
 k-point 58 :  -0.4167-0.4167 0.2500  plane waves:     598
 k-point 59 :  -0.2500-0.4167 0.2500  plane waves:     592
 k-point 60 :  -0.0833-0.4167 0.2500  plane waves:     593
 k-point 61 :   0.0833-0.2500 0.2500  plane waves:     589
 k-point 62 :   0.2500-0.2500 0.2500  plane waves:     597
 k-point 63 :   0.4167-0.2500 0.2500  plane waves:     592
 k-point 64 :  -0.4167-0.2500 0.2500  plane waves:     592
 k-point 65 :  -0.2500-0.2500 0.2500  plane waves:     597
 k-point 66 :  -0.0833-0.2500 0.2500  plane waves:     589
 k-point 67 :   0.0833-0.0833 0.2500  plane waves:     592
 k-point 68 :   0.2500-0.0833 0.2500  plane waves:     589
 k-point 69 :   0.4167-0.0833 0.2500  plane waves:     593
 k-point 70 :  -0.4167-0.0833 0.2500  plane waves:     593
 k-point 71 :  -0.2500-0.0833 0.2500  plane waves:     589
 k-point 72 :  -0.0833-0.0833 0.2500  plane waves:     592
 k-point 73 :   0.0833 0.0833 0.4167  plane waves:     599
 k-point 74 :   0.2500 0.0833 0.4167  plane waves:     593
 k-point 75 :   0.4167 0.0833 0.4167  plane waves:     596
 k-point 76 :  -0.4167 0.0833 0.4167  plane waves:     596
 k-point 77 :  -0.2500 0.0833 0.4167  plane waves:     593
 k-point 78 :  -0.0833 0.0833 0.4167  plane waves:     599
 k-point 79 :   0.0833 0.2500 0.4167  plane waves:     593
 k-point 80 :   0.2500 0.2500 0.4167  plane waves:     592
 k-point 81 :   0.4167 0.2500 0.4167  plane waves:     598
 k-point 82 :  -0.4167 0.2500 0.4167  plane waves:     598
 k-point 83 :  -0.2500 0.2500 0.4167  plane waves:     592
 k-point 84 :  -0.0833 0.2500 0.4167  plane waves:     593
 k-point 85 :   0.0833 0.4167 0.4167  plane waves:     596
 k-point 86 :   0.2500 0.4167 0.4167  plane waves:     598
 k-point 87 :   0.4167 0.4167 0.4167  plane waves:     606
 k-point 88 :  -0.4167 0.4167 0.4167  plane waves:     606
 k-point 89 :  -0.2500 0.4167 0.4167  plane waves:     598
 k-point 90 :  -0.0833 0.4167 0.4167  plane waves:     596
 k-point 91 :   0.0833-0.4167 0.4167  plane waves:     596
 k-point 92 :   0.2500-0.4167 0.4167  plane waves:     598
 k-point 93 :   0.4167-0.4167 0.4167  plane waves:     606
 k-point 94 :  -0.4167-0.4167 0.4167  plane waves:     606
 k-point 95 :  -0.2500-0.4167 0.4167  plane waves:     598
 k-point 96 :  -0.0833-0.4167 0.4167  plane waves:     596
 k-point 97 :   0.0833-0.2500 0.4167  plane waves:     593
 k-point 98 :   0.2500-0.2500 0.4167  plane waves:     592
 k-point 99 :   0.4167-0.2500 0.4167  plane waves:     598
 k-point ** :  -0.4167-0.2500 0.4167  plane waves:     598
 k-point ** :  -0.2500-0.2500 0.4167  plane waves:     592
 k-point ** :  -0.0833-0.2500 0.4167  plane waves:     593
 k-point ** :   0.0833-0.0833 0.4167  plane waves:     599
 k-point ** :   0.2500-0.0833 0.4167  plane waves:     593
 k-point ** :   0.4167-0.0833 0.4167  plane waves:     596
 k-point ** :  -0.4167-0.0833 0.4167  plane waves:     596
 k-point ** :  -0.2500-0.0833 0.4167  plane waves:     593
 k-point ** :  -0.0833-0.0833 0.4167  plane waves:     599

 maximum and minimum number of plane-waves per node :       606      589

 maximum number of plane-waves:       606
 maximum index in each direction: 
   IXMAX=    5   IYMAX=    5   IZMAX=    5
   IXMIN=   -5   IYMIN=   -5   IZMIN=   -5

 WARNING: aliasing errors must be expected set NGX to  22 to avoid them
 WARNING: aliasing errors must be expected set NGY to  22 to avoid them
 WARNING: aliasing errors must be expected set NGZ to  22 to avoid them
 aliasing errors are usually negligible using standard VASP settings
 and one can safely disregard these warnings

 serial   3D FFT for wavefunctions
 parallel 3D FFT for charge:
    minimum data exchange during FFTs selected (reduces bandwidth)


 total amount of memory used by VASP on root node    42334. kBytes
========================================================================

   base      :      30000. kBytes
   nonl-proj :       9475. kBytes
   fftplans  :         62. kBytes
   grid      :        413. kBytes
   one-center:         62. kBytes
   wavefun   :       2322. kBytes
 
     INWAV:  cpu time    0.0000: real time    0.0002
 Broyden mixing: mesh for mixing (old mesh)
   NGX = 11   NGY = 11   NGZ = 11
  (NGX  = 32   NGY  = 32   NGZ  = 32)
  gives a total of   1331 points

 initial charge density was supplied:
 charge density of overlapping atoms calculated
 number of electron      16.0000000 magnetization       2.0000000
 keeping initial charge density in first step


--------------------------------------------------------------------------------------------------------


 Maximum index for augmentation-charges          401 (set IRDMAX)


--------------------------------------------------------------------------------------------------------


 First call to EWALD:  gamma=   0.620
 Maximum number of real-space cells 3x 3x 3
 Maximum number of reciprocal cells 3x 3x 3

 FEWALD executed in parallel
    FEWALD:  cpu time    0.0030: real time    0.0020


----------------------------------------- Iteration    1(   1)  ---------------------------------------


    POTLOK:  cpu time    0.0130: real time    0.0138
    SETDIJ:  cpu time    0.0070: real time    0.0070
     EDDAV:  cpu time    2.5366: real time    2.5375
       DOS:  cpu time    0.0020: real time    0.0021
    --------------------------------------------
      LOOP:  cpu time    2.5636: real time    2.5777

 eigenvalue-minimisations  : 13824
 total energy-change (2. order) :-0.2583438E+01  (-0.8497142E+03)
 number of electron      16.0000000 magnetization       2.0000000
 augmentation part       16.0000000 magnetization       2.0000000

 Free energy of the ion-electron system (eV)
  ---------------------------------------------------
  alpha Z        PSCENC =       118.17524546
  Ewald energy   TEWEN  =     -1172.68111701
  -Hartree energ DENC   =      -227.55063011
  -exchange      EXHF   =         0.00000000
  -V(xc)+E(xc)   XCENC  =         7.90834731
  PAW double counting   =      1109.45345578    -1124.86183816
  entropy T*S    EENTRO =         0.00108194
  eigenvalues    EBANDS =        98.34667628
  atomic energy  EATOM  =      1188.62534088
  Solvation  Ediel_sol  =         0.00000000
  ---------------------------------------------------
  free energy    TOTEN  =        -2.58343763 eV

  energy without entropy =       -2.58451957  energy(sigma->0) =       -2.58379828


--------------------------------------------------------------------------------------------------------




----------------------------------------- Iteration    1(   2)  ---------------------------------------


     EDDAV:  cpu time    4.3993: real time    4.4007
       DOS:  cpu time    0.0010: real time    0.0021
    --------------------------------------------
      LOOP:  cpu time    4.4013: real time    4.4156

 eigenvalue-minimisations  : 19392
 total energy-change (2. order) :-0.1589308E+02  (-0.1564739E+02)
 number of electron      16.0000000 magnetization       2.0000000
 augmentation part       16.0000000 magnetization       2.0000000

 Free energy of the ion-electron system (eV)
  ---------------------------------------------------
  alpha Z        PSCENC =       118.17524546
  Ewald energy   TEWEN  =     -1172.68111701
  -Hartree energ DENC   =      -227.55063011
  -exchange      EXHF   =         0.00000000
  -V(xc)+E(xc)   XCENC  =         7.90834731
  PAW double counting   =      1109.45345578    -1124.86183816
  entropy T*S    EENTRO =        -0.01455301
  eigenvalues    EBANDS =        82.46923531
  atomic energy  EATOM  =      1188.62534088
  Solvation  Ediel_sol  =         0.00000000
  ---------------------------------------------------
  free energy    TOTEN  =       -18.47651355 eV

  energy without entropy =      -18.46196054  energy(sigma->0) =      -18.47166255


--------------------------------------------------------------------------------------------------------




----------------------------------------- Iteration    1(   3)  ---------------------------------------


     EDDAV:  cpu time    2.8626: real time    2.8714
       DOS:  cpu time    0.0050: real time    0.0050
    --------------------------------------------
      LOOP:  cpu time    2.8696: real time    2.8898

 eigenvalue-minimisations  : 14464
 total energy-change (2. order) :-0.1668100E-01  (-0.1666918E-01)
 number of electron      16.0000000 magnetization       2.0000000
 augmentation part       16.0000000 magnetization       2.0000000

 Free energy of the ion-electron system (eV)
  ---------------------------------------------------
  alpha Z        PSCENC =       118.17524546
  Ewald energy   TEWEN  =     -1172.68111701
  -Hartree energ DENC   =      -227.55063011
  -exchange      EXHF   =         0.00000000
  -V(xc)+E(xc)   XCENC  =         7.90834731
  PAW double counting   =      1109.45345578    -1124.86183816
  entropy T*S    EENTRO =        -0.01455958
  eigenvalues    EBANDS =        82.45256088
  atomic energy  EATOM  =      1188.62534088
  Solvation  Ediel_sol  =         0.00000000
  ---------------------------------------------------
  free energy    TOTEN  =       -18.49319455 eV

  energy without entropy =      -18.47863497  energy(sigma->0) =      -18.48834136


--------------------------------------------------------------------------------------------------------




----------------------------------------- Iteration    1(   4)  ---------------------------------------


     EDDAV:  cpu time    6.7760: real time    6.7815
       DOS:  cpu time    0.0010: real time    0.0019
    --------------------------------------------
      LOOP:  cpu time    6.7780: real time    6.7993

 eigenvalue-minimisations  : 24512
 total energy-change (2. order) :-0.1495259E-04  (-0.1495140E-04)
 number of electron      16.0000000 magnetization       2.0000000
 augmentation part       16.0000000 magnetization       2.0000000

 Free energy of the ion-electron system (eV)
  ---------------------------------------------------
  alpha Z        PSCENC =       118.17524546
  Ewald energy   TEWEN  =     -1172.68111701
  -Hartree energ DENC   =      -227.55063011
  -exchange      EXHF   =         0.00000000
  -V(xc)+E(xc)   XCENC  =         7.90834731
  PAW double counting   =      1109.45345578    -1124.86183816
  entropy T*S    EENTRO =        -0.01455963
  eigenvalues    EBANDS =        82.45254598
  atomic energy  EATOM  =      1188.62534088
  Solvation  Ediel_sol  =         0.00000000
  ---------------------------------------------------
  free energy    TOTEN  =       -18.49320950 eV

  energy without entropy =      -18.47864987  energy(sigma->0) =      -18.48835629


--------------------------------------------------------------------------------------------------------




----------------------------------------- Iteration    1(   5)  ---------------------------------------


     EDDAV:  cpu time    2.9276: real time    2.9295
       DOS:  cpu time    0.0030: real time    0.0020
    CHARGE:  cpu time    0.0150: real time    0.0155
    MIXING:  cpu time    0.0010: real time    0.0004
    --------------------------------------------
      LOOP:  cpu time    2.9476: real time    2.9609

 eigenvalue-minimisations  : 14784
 total energy-change (2. order) :-0.3294645E-09  (-0.8098034E-10)
 number of electron      16.0000068 magnetization       2.4732635
 augmentation part        7.1376881 magnetization       1.8109945

 Broyden mixing:
  rms(total) = 0.15787E+01    rms(broyden)= 0.15787E+01
  rms(prec ) = 0.37554E+01
  weight for this iteration     100.00

 Free energy of the ion-electron system (eV)
  ---------------------------------------------------
  alpha Z        PSCENC =       118.17524546
  Ewald energy   TEWEN  =     -1172.68111701
  -Hartree energ DENC   =      -227.55063011
  -exchange      EXHF   =         0.00000000
  -V(xc)+E(xc)   XCENC  =         7.90834731
  PAW double counting   =      1109.45345578    -1124.86183816
  entropy T*S    EENTRO =        -0.01455963
  eigenvalues    EBANDS =        82.45254598
  atomic energy  EATOM  =      1188.62534088
  Solvation  Ediel_sol  =         0.00000000
  ---------------------------------------------------
  free energy    TOTEN  =       -18.49320950 eV

  energy without entropy =      -18.47864987  energy(sigma->0) =      -18.48835629


--------------------------------------------------------------------------------------------------------




----------------------------------------- Iteration    1(   6)  ---------------------------------------


    POTLOK:  cpu time    0.0040: real time    0.0038
    SETDIJ:  cpu time    0.0070: real time    0.0071
     EDDAV:  cpu time    4.4623: real time    4.4640
       DOS:  cpu time    0.0020: real time    0.0020
    CHARGE:  cpu time    0.0160: real time    0.0164
    MIXING:  cpu time    0.0000: real time    0.0004
    --------------------------------------------
      LOOP:  cpu time    4.4913: real time    4.5061

 eigenvalue-minimisations  : 18912
 total energy-change (2. order) : 0.2061832E+01  (-0.3340168E+01)
 number of electron      16.0000088 magnetization       3.5313167
 augmentation part        8.6521454 magnetization       2.8645550

 Broyden mixing:
  rms(total) = 0.90343E+00    rms(broyden)= 0.90336E+00
  rms(prec ) = 0.11969E+01
  weight for this iteration     100.00

 eigenvalues of (default mixing * dielectric matrix)
  average eigenvalue GAMMA=   0.5721
  0.5721

 Free energy of the ion-electron system (eV)
  ---------------------------------------------------
  alpha Z        PSCENC =       118.17524546
  Ewald energy   TEWEN  =     -1172.68111701
  -Hartree energ DENC   =      -191.84807141
  -exchange      EXHF   =         0.00000000
  -V(xc)+E(xc)   XCENC  =         6.62592230
  PAW double counting   =      1194.20621793    -1204.61607629
  entropy T*S    EENTRO =         0.01798549
  eigenvalues    EBANDS =        45.06317553
  atomic energy  EATOM  =      1188.62534088
  Solvation  Ediel_sol  =         0.00000000
  ---------------------------------------------------
  free energy    TOTEN  =       -16.43137713 eV

  energy without entropy =      -16.44936262  energy(sigma->0) =      -16.43737229


--------------------------------------------------------------------------------------------------------




----------------------------------------- Iteration    1(   7)  ---------------------------------------


    POTLOK:  cpu time    0.0020: real time    0.0037
    SETDIJ:  cpu time    0.0070: real time    0.0071
     EDDAV:  cpu time    3.1515: real time    3.1528
       DOS:  cpu time    0.0020: real time    0.0020
    CHARGE:  cpu time    0.0160: real time    0.0155
    MIXING:  cpu time    0.0000: real time    0.0003
    --------------------------------------------
      LOOP:  cpu time    3.1805: real time    3.1934

 eigenvalue-minimisations  : 15488
 total energy-change (2. order) : 0.5114964E-01  (-0.2650984E+00)
 number of electron      16.0000082 magnetization       4.3230779
 augmentation part        8.2681551 magnetization       3.5657601

 Broyden mixing:
  rms(total) = 0.45969E+00    rms(broyden)= 0.45968E+00
  rms(prec ) = 0.51167E+00
  weight for this iteration     100.00

 eigenvalues of (default mixing * dielectric matrix)
  average eigenvalue GAMMA=   0.8901
  1.1503  0.6300

 Free energy of the ion-electron system (eV)
  ---------------------------------------------------
  alpha Z        PSCENC =       118.17524546
  Ewald energy   TEWEN  =     -1172.68111701
  -Hartree energ DENC   =      -198.21065379
  -exchange      EXHF   =         0.00000000
  -V(xc)+E(xc)   XCENC  =         7.76991224
  PAW double counting   =      1260.57935328    -1274.75871820
  entropy T*S    EENTRO =        -0.01969812
  eigenvalues    EBANDS =        54.14010777
  atomic energy  EATOM  =      1188.62534088
  Solvation  Ediel_sol  =         0.00000000
  ---------------------------------------------------
  free energy    TOTEN  =       -16.38022749 eV

  energy without entropy =      -16.36052937  energy(sigma->0) =      -16.37366145


--------------------------------------------------------------------------------------------------------




----------------------------------------- Iteration    1(   8)  ---------------------------------------


    POTLOK:  cpu time    0.0040: real time    0.0037
    SETDIJ:  cpu time    0.0070: real time    0.0071
     EDDAV:  cpu time    5.1272: real time    5.1312
       DOS:  cpu time    0.0020: real time    0.0018
    CHARGE:  cpu time    0.0160: real time    0.0164
    MIXING:  cpu time    0.0000: real time    0.0003
    --------------------------------------------
      LOOP:  cpu time    5.1572: real time    5.1734

 eigenvalue-minimisations  : 21184
 total energy-change (2. order) :-0.6682538E-01  (-0.1463092E-01)
 number of electron      16.0000082 magnetization       4.4929796
 augmentation part        8.2754600 magnetization       3.7682653

 Broyden mixing:
  rms(total) = 0.24228E+00    rms(broyden)= 0.24228E+00
  rms(prec ) = 0.28475E+00
  weight for this iteration     100.00

 eigenvalues of (default mixing * dielectric matrix)
  average eigenvalue GAMMA=   1.0028
  1.6939  0.6572  0.6572

 Free energy of the ion-electron system (eV)
  ---------------------------------------------------
  alpha Z        PSCENC =       118.17524546
  Ewald energy   TEWEN  =     -1172.68111701
  -Hartree energ DENC   =      -196.62127707
  -exchange      EXHF   =         0.00000000
  -V(xc)+E(xc)   XCENC  =         8.43541533
  PAW double counting   =      1317.09720720    -1332.93242334
  entropy T*S    EENTRO =        -0.01639720
  eigenvalues    EBANDS =        53.47095288
  atomic energy  EATOM  =      1188.62534088
  Solvation  Ediel_sol  =         0.00000000
  ---------------------------------------------------
  free energy    TOTEN  =       -16.44705287 eV

  energy without entropy =      -16.43065567  energy(sigma->0) =      -16.44158714


--------------------------------------------------------------------------------------------------------




----------------------------------------- Iteration    1(   9)  ---------------------------------------


    POTLOK:  cpu time    0.0040: real time    0.0037
    SETDIJ:  cpu time    0.0070: real time    0.0070
     EDDAV:  cpu time    4.7113: real time    4.7137
       DOS:  cpu time    0.0020: real time    0.0019
    CHARGE:  cpu time    0.0200: real time    0.0204
    MIXING:  cpu time    0.0000: real time    0.0003
    --------------------------------------------
      LOOP:  cpu time    4.7453: real time    4.7600

 eigenvalue-minimisations  : 19904
 total energy-change (2. order) : 0.1167111E-01  (-0.2854117E-02)
 number of electron      16.0000082 magnetization       4.3729475
 augmentation part        8.2967518 magnetization       3.6325468

 Broyden mixing:
  rms(total) = 0.12941E+00    rms(broyden)= 0.12941E+00
  rms(prec ) = 0.13901E+00
  weight for this iteration     100.00

 eigenvalues of (default mixing * dielectric matrix)
  average eigenvalue GAMMA=   1.4243
  2.9159  1.3776  0.7777  0.6260

 Free energy of the ion-electron system (eV)
  ---------------------------------------------------
  alpha Z        PSCENC =       118.17524546
  Ewald energy   TEWEN  =     -1172.68111701
  -Hartree energ DENC   =      -195.11919519
  -exchange      EXHF   =         0.00000000
  -V(xc)+E(xc)   XCENC  =         8.62111288
  PAW double counting   =      1369.99859612    -1387.19311393
  entropy T*S    EENTRO =        -0.01703299
  eigenvalues    EBANDS =        53.15478202
  atomic energy  EATOM  =      1188.62534088
  Solvation  Ediel_sol  =         0.00000000
  ---------------------------------------------------
  free energy    TOTEN  =       -16.43538176 eV

  energy without entropy =      -16.41834877  energy(sigma->0) =      -16.42970409


--------------------------------------------------------------------------------------------------------




----------------------------------------- Iteration    1(  10)  ---------------------------------------


    POTLOK:  cpu time    0.0030: real time    0.0037
    SETDIJ:  cpu time    0.0070: real time    0.0071
     EDDAV:  cpu time    5.0062: real time    5.0079
       DOS:  cpu time    0.0020: real time    0.0019
    CHARGE:  cpu time    0.0200: real time    0.0204
    MIXING:  cpu time    0.0000: real time    0.0003
    --------------------------------------------
      LOOP:  cpu time    5.0402: real time    5.0541

 eigenvalue-minimisations  : 20480
 total energy-change (2. order) :-0.1061563E-02  (-0.1869807E-02)
 number of electron      16.0000082 magnetization       4.3239380
 augmentation part        8.2794164 magnetization       3.5880752

 Broyden mixing:
  rms(total) = 0.78959E-01    rms(broyden)= 0.78959E-01
  rms(prec ) = 0.86594E-01
  weight for this iteration     100.00

 eigenvalues of (default mixing * dielectric matrix)
  average eigenvalue GAMMA=   1.2224
  2.2933  1.5757  0.9466  0.6481  0.6481

 Free energy of the ion-electron system (eV)
  ---------------------------------------------------
  alpha Z        PSCENC =       118.17524546
  Ewald energy   TEWEN  =     -1172.68111701
  -Hartree energ DENC   =      -193.99829481
  -exchange      EXHF   =         0.00000000
  -V(xc)+E(xc)   XCENC  =         8.45146108
  PAW double counting   =      1432.00271908    -1450.53100263
  entropy T*S    EENTRO =        -0.01736006
  eigenvalues    EBANDS =        53.53656470
  atomic energy  EATOM  =      1188.62534088
  Solvation  Ediel_sol  =         0.00000000
  ---------------------------------------------------
  free energy    TOTEN  =       -16.43644332 eV

  energy without entropy =      -16.41908326  energy(sigma->0) =      -16.43065663


--------------------------------------------------------------------------------------------------------




----------------------------------------- Iteration    1(  11)  ---------------------------------------


    POTLOK:  cpu time    0.0030: real time    0.0037
    SETDIJ:  cpu time    0.0070: real time    0.0070
     EDDAV:  cpu time    4.5303: real time    4.5312
       DOS:  cpu time    0.0010: real time    0.0019
    CHARGE:  cpu time    0.0210: real time    0.0205
    MIXING:  cpu time    0.0000: real time    0.0003
    --------------------------------------------
      LOOP:  cpu time    4.5633: real time    4.5779

 eigenvalue-minimisations  : 19072
 total energy-change (2. order) : 0.6476139E-03  (-0.5907862E-03)
 number of electron      16.0000082 magnetization       4.3407550
 augmentation part        8.2937382 magnetization       3.6108182

 Broyden mixing:
  rms(total) = 0.14056E-01    rms(broyden)= 0.14054E-01
  rms(prec ) = 0.18287E-01
  weight for this iteration     100.00

 eigenvalues of (default mixing * dielectric matrix)
  average eigenvalue GAMMA=   1.1293
  2.2584  1.2640  1.2640  0.6345  0.6775  0.6775

 Free energy of the ion-electron system (eV)
  ---------------------------------------------------
  alpha Z        PSCENC =       118.17524546
  Ewald energy   TEWEN  =     -1172.68111701
  -Hartree energ DENC   =      -194.15364957
  -exchange      EXHF   =         0.00000000
  -V(xc)+E(xc)   XCENC  =         8.40097262
  PAW double counting   =      1410.57537413    -1428.52678106
  entropy T*S    EENTRO =        -0.01764629
  eigenvalues    EBANDS =        53.16646514
  atomic energy  EATOM  =      1188.62534088
  Solvation  Ediel_sol  =         0.00000000
  ---------------------------------------------------
  free energy    TOTEN  =       -16.43579571 eV

  energy without entropy =      -16.41814941  energy(sigma->0) =      -16.42991361


--------------------------------------------------------------------------------------------------------




----------------------------------------- Iteration    1(  12)  ---------------------------------------


    POTLOK:  cpu time    0.0020: real time    0.0037
    SETDIJ:  cpu time    0.0080: real time    0.0071
     EDDAV:  cpu time    3.9474: real time    3.9493
       DOS:  cpu time    0.0020: real time    0.0019
    CHARGE:  cpu time    0.0200: real time    0.0205
    MIXING:  cpu time    0.0010: real time    0.0004
    --------------------------------------------
      LOOP:  cpu time    3.9824: real time    3.9954

 eigenvalue-minimisations  : 17824
 total energy-change (2. order) : 0.4200041E-04  (-0.2224731E-04)
 number of electron      16.0000082 magnetization       4.3364844
 augmentation part        8.2973250 magnetization       3.6067244

 Broyden mixing:
  rms(total) = 0.49151E-02    rms(broyden)= 0.49151E-02
  rms(prec ) = 0.63126E-02
  weight for this iteration     100.00

 eigenvalues of (default mixing * dielectric matrix)
  average eigenvalue GAMMA=   1.0997
  2.2684  1.4706  0.9788  0.9788  0.6901  0.6901  0.6212

 Free energy of the ion-electron system (eV)
  ---------------------------------------------------
  alpha Z        PSCENC =       118.17524546
  Ewald energy   TEWEN  =     -1172.68111701
  -Hartree energ DENC   =      -194.10602965
  -exchange      EXHF   =         0.00000000
  -V(xc)+E(xc)   XCENC  =         8.42610244
  PAW double counting   =      1410.53999814    -1428.48869177
  entropy T*S    EENTRO =        -0.01775357
  eigenvalues    EBANDS =        53.09115138
  atomic energy  EATOM  =      1188.62534088
  Solvation  Ediel_sol  =         0.00000000
  ---------------------------------------------------
  free energy    TOTEN  =       -16.43575371 eV

  energy without entropy =      -16.41800013  energy(sigma->0) =      -16.42983585


--------------------------------------------------------------------------------------------------------




----------------------------------------- Iteration    1(  13)  ---------------------------------------


    POTLOK:  cpu time    0.0030: real time    0.0037
    SETDIJ:  cpu time    0.0070: real time    0.0071
     EDDAV:  cpu time    2.3376: real time    2.3398
       DOS:  cpu time    0.0020: real time    0.0019
    --------------------------------------------
      LOOP:  cpu time    2.3506: real time    2.3655

 eigenvalue-minimisations  : 11808
 total energy-change (2. order) :-0.1220339E-05  (-0.5908795E-05)
 number of electron      16.0000082 magnetization       4.3364844
 augmentation part        8.2973250 magnetization       3.6067244

 Free energy of the ion-electron system (eV)
  ---------------------------------------------------
  alpha Z        PSCENC =       118.17524546
  Ewald energy   TEWEN  =     -1172.68111701
  -Hartree energ DENC   =      -194.09814290
  -exchange      EXHF   =         0.00000000
  -V(xc)+E(xc)   XCENC  =         8.42135907
  PAW double counting   =      1410.93225255    -1428.88202721
  entropy T*S    EENTRO =        -0.01774568
  eigenvalues    EBANDS =        53.08907991
  atomic energy  EATOM  =      1188.62534088
  Solvation  Ediel_sol  =         0.00000000
  ---------------------------------------------------
  free energy    TOTEN  =       -16.43575493 eV

  energy without entropy =      -16.41800924  energy(sigma->0) =      -16.42983970


--------------------------------------------------------------------------------------------------------




 average (electrostatic) potential at core
  the test charge radii are     1.0103
  (the norm of the test charge is              1.0000)
       1 -43.6363       2 -43.6399
 
 
 
 E-fermi :   5.4398     XC(G=0): -12.9576     alpha+bet :-13.2519


 spin component 1

 k-point     1 :       0.0833    0.0833    0.0833
  band No.  band energies     occupation 
      1      -2.2963      1.00000
      2       1.0248      1.00000
      3       1.0248      1.00000
      4       3.1606      1.00000
      5       3.1606      1.00000
      6       3.5008      1.00000
      7       4.3844      1.00000
      8       4.3844      1.00000
      9       4.9702      1.00222
     10       5.4493      0.46024
     11       5.4493      0.46024
     12      14.5622      0.00000
     13      14.5622      0.00000
     14      15.1635      0.00000
     15      22.1853      0.00000
     16      22.1853      0.00000
     17      26.9139      0.00000
     18      28.3423      0.00000
     19      28.3423      0.00000
     20      30.6732      0.00000
     21      32.7406      0.00000
     22      35.2984      0.00000
     23      35.2984      0.00000
     24      36.7760      0.00000
     25      36.7760      0.00000
     26      41.0808      0.00000
     27      41.4072      0.00000
     28      41.4072      0.00000
     29      42.7021      0.00000
     30      48.3401      0.00000
     31      50.3270      0.00000
     32      50.3270      0.00000

 k-point     2 :       0.2500    0.0833    0.0833
  band No.  band energies     occupation 
      1      -1.2554      1.00000
      2       1.4063      1.00000
      3       1.4379      1.00000
      4       3.0463      1.00000
      5       3.0990      1.00000
      6       3.9369      1.00000
      7       4.0434      1.00000
      8       4.1701      1.00000
      9       4.5826      1.00000
     10       4.7669      1.00001
     11       5.3885      0.70955
     12      10.5779     -0.00000
     13      16.2182      0.00000
     14      16.6182      0.00000
     15      22.7803      0.00000
     16      24.3620      0.00000
     17      24.7061      0.00000
     18      26.0498      0.00000
     19      29.5411      0.00000
     20      30.7570      0.00000
     21      30.8914      0.00000
     22      32.7295      0.00000
     23      35.2814      0.00000
     24      38.9405      0.00000
     25      39.5738      0.00000
     26      40.9626      0.00000
     27      43.7312      0.00000
     28      44.7054      0.00000
     29      45.4967      0.00000
     30      45.5438      0.00000
     31      46.9346      0.00000
     32      51.6412      0.00000

 k-point     3 :       0.4167    0.0833    0.0833
  band No.  band energies     occupation 
      1       0.3980      1.00000
      2       1.4951      1.00000
      3       2.1420      1.00000
      4       2.8423      1.00000
      5       3.2044      1.00000
      6       3.5450      1.00000
      7       3.7348      1.00000
      8       4.0481      1.00000
      9       4.4763      1.00000
     10       4.9756      1.00248
     11       5.1047      1.01962
     12       6.9976     -0.00000
     13      18.7328      0.00000
     14      19.1976      0.00000
     15      21.5507      0.00000
     16      22.4162      0.00000
     17      24.1759      0.00000
     18      25.7931      0.00000
     19      26.5839      0.00000
     20      28.1065      0.00000
     21      33.8130      0.00000
     22      35.9456      0.00000
     23      37.5177      0.00000
     24      37.9466      0.00000
     25      40.3813      0.00000
     26      41.1633      0.00000
     27      42.7135      0.00000
     28      44.6153      0.00000
     29      46.9308      0.00000
     30      47.9061      0.00000
     31      49.0553      0.00000
     32      51.2485      0.00000

 k-point     4 :      -0.4167    0.0833    0.0833
  band No.  band energies     occupation 
      1       0.3980      1.00000
      2       1.4951      1.00000
      3       2.1420      1.00000
      4       2.8423      1.00000
      5       3.2044      1.00000
      6       3.5450      1.00000
      7       3.7348      1.00000
      8       4.0481      1.00000
      9       4.4763      1.00000
     10       4.9756      1.00248
     11       5.1047      1.01962
     12       6.9976     -0.00000
     13      18.7328      0.00000
     14      19.1976      0.00000
     15      21.5507      0.00000
     16      22.4162      0.00000
     17      24.1759      0.00000
     18      25.7931      0.00000
     19      26.5839      0.00000
     20      28.1065      0.00000
     21      33.8130      0.00000
     22      35.9456      0.00000
     23      37.5177      0.00000
     24      37.9466      0.00000
     25      40.3813      0.00000
     26      41.1633      0.00000
     27      42.7135      0.00000
     28      44.6153      0.00000
     29      46.9308      0.00000
     30      47.9061      0.00000
     31      49.0553      0.00000
     32      51.2485      0.00000

 k-point     5 :      -0.2500    0.0833    0.0833
  band No.  band energies     occupation 
      1      -1.2554      1.00000
      2       1.4063      1.00000
      3       1.4379      1.00000
      4       3.0463      1.00000
      5       3.0990      1.00000
      6       3.9369      1.00000
      7       4.0434      1.00000
      8       4.1701      1.00000
      9       4.5826      1.00000
     10       4.7669      1.00001
     11       5.3885      0.70955
     12      10.5779     -0.00000
     13      16.2182      0.00000
     14      16.6182      0.00000
     15      22.7803      0.00000
     16      24.3620      0.00000
     17      24.7061      0.00000
     18      26.0498      0.00000
     19      29.5411      0.00000
     20      30.7570      0.00000
     21      30.8914      0.00000
     22      32.7295      0.00000
     23      35.2814      0.00000
     24      38.9405      0.00000
     25      39.5738      0.00000
     26      40.9626      0.00000
     27      43.7312      0.00000
     28      44.7054      0.00000
     29      45.4967      0.00000
     30      45.5438      0.00000
     31      46.9346      0.00000
     32      51.6412      0.00000

 k-point     6 :      -0.0833    0.0833    0.0833
  band No.  band energies     occupation 
      1      -2.2963      1.00000
      2       1.0248      1.00000
      3       1.0248      1.00000
      4       3.1606      1.00000
      5       3.1606      1.00000
      6       3.5008      1.00000
      7       4.3844      1.00000
      8       4.3844      1.00000
      9       4.9702      1.00222
     10       5.4493      0.46024
     11       5.4493      0.46024
     12      14.5622      0.00000
     13      14.5622      0.00000
     14      15.1635      0.00000
     15      22.1853      0.00000
     16      22.1853      0.00000
     17      26.9139      0.00000
     18      28.3423      0.00000
     19      28.3423      0.00000
     20      30.6732      0.00000
     21      32.7406      0.00000
     22      35.2984      0.00000
     23      35.2984      0.00000
     24      36.7760      0.00000
     25      36.7760      0.00000
     26      41.0808      0.00000
     27      41.4072      0.00000
     28      41.4072      0.00000
     29      42.7021      0.00000
     30      48.3401      0.00000
     31      50.3270      0.00000
     32      50.3270      0.00000

 k-point     7 :       0.0833    0.2500    0.0833
  band No.  band energies     occupation 
      1      -1.2554      1.00000
      2       1.4063      1.00000
      3       1.4379      1.00000
      4       3.0463      1.00000
      5       3.0990      1.00000
      6       3.9369      1.00000
      7       4.0434      1.00000
      8       4.1701      1.00000
      9       4.5826      1.00000
     10       4.7669      1.00001
     11       5.3885      0.70955
     12      10.5779     -0.00000
     13      16.2182      0.00000
     14      16.6182      0.00000
     15      22.7803      0.00000
     16      24.3620      0.00000
     17      24.7061      0.00000
     18      26.0498      0.00000
     19      29.5411      0.00000
     20      30.7570      0.00000
     21      30.8914      0.00000
     22      32.7295      0.00000
     23      35.2814      0.00000
     24      38.9405      0.00000
     25      39.5738      0.00000
     26      40.9626      0.00000
     27      43.7312      0.00000
     28      44.7054      0.00000
     29      45.4967      0.00000
     30      45.5438      0.00000
     31      46.9346      0.00000
     32      51.6412      0.00000

 k-point     8 :       0.2500    0.2500    0.0833
  band No.  band energies     occupation 
      1      -0.3753      1.00000
      2       1.5247      1.00000
      3       1.9668      1.00000
      4       2.6864      1.00000
      5       2.9874      1.00000
      6       3.3588      1.00000
      7       4.2804      1.00000
      8       4.4194      1.00000
      9       4.4859      1.00000
     10       4.6086      1.00000
     11       5.5473      0.11003
     12      10.8038     -0.00000
     13      13.2144      0.00000
     14      17.6805      0.00000
     15      21.0976      0.00000
     16      23.9283      0.00000
     17      25.2329      0.00000
     18      27.6384      0.00000
     19      28.1846      0.00000
     20      30.4518      0.00000
     21      32.0972      0.00000
     22      34.1047      0.00000
     23      36.2636      0.00000
     24      36.3559      0.00000
     25      39.1717      0.00000
     26      41.7948      0.00000
     27      42.1127      0.00000
     28      45.7878      0.00000
     29      48.1841      0.00000
     30      50.0094      0.00000
     31      50.0584      0.00000
     32      51.9985      0.00000

 k-point     9 :       0.4167    0.2500    0.0833
  band No.  band energies     occupation 
      1       0.7474      1.00000
      2       1.3780      1.00000
      3       2.5644      1.00000
      4       2.5656      1.00000
      5       2.9464      1.00000
      6       3.1198      1.00000
      7       4.1900      1.00000
      8       4.2453      1.00000
      9       4.7965      1.00003
     10       5.3678      0.78390
     11       5.4949      0.27647
     12       7.7006     -0.00000
     13      14.7248      0.00000
     14      17.5426      0.00000
     15      19.8334      0.00000
     16      22.6001      0.00000
     17      25.0412      0.00000
     18      26.5535      0.00000
     19      29.9441      0.00000
     20      30.3361      0.00000
     21      32.6411      0.00000
     22      33.7867      0.00000
     23      35.7337      0.00000
     24      37.2054      0.00000
     25      40.0776      0.00000
     26      43.4303      0.00000
     27      45.0717      0.00000
     28      47.3551      0.00000
     29      47.6794      0.00000
     30      51.1671      0.00000
     31      51.7759      0.00000
     32      52.4658      0.00000

 k-point    10 :      -0.4167    0.2500    0.0833
  band No.  band energies     occupation 
      1       0.7474      1.00000
      2       1.3780      1.00000
      3       2.5644      1.00000
      4       2.5656      1.00000
      5       2.9464      1.00000
      6       3.1198      1.00000
      7       4.1900      1.00000
      8       4.2453      1.00000
      9       4.7965      1.00003
     10       5.3678      0.78390
     11       5.4949      0.27647
     12       7.7006     -0.00000
     13      14.7248      0.00000
     14      17.5426      0.00000
     15      19.8334      0.00000
     16      22.6001      0.00000
     17      25.0412      0.00000
     18      26.5535      0.00000
     19      29.9441      0.00000
     20      30.3361      0.00000
     21      32.6411      0.00000
     22      33.7867      0.00000
     23      35.7337      0.00000
     24      37.2054      0.00000
     25      40.0776      0.00000
     26      43.4303      0.00000
     27      45.0717      0.00000
     28      47.3551      0.00000
     29      47.6794      0.00000
     30      51.1671      0.00000
     31      51.7759      0.00000
     32      52.4658      0.00000

 k-point    11 :      -0.2500    0.2500    0.0833
  band No.  band energies     occupation 
      1      -0.3753      1.00000
      2       1.5247      1.00000
      3       1.9668      1.00000
      4       2.6864      1.00000
      5       2.9874      1.00000
      6       3.3588      1.00000
      7       4.2804      1.00000
      8       4.4194      1.00000
      9       4.4859      1.00000
     10       4.6086      1.00000
     11       5.5473      0.11003
[...]
      8       6.0260     -0.00014
      9       6.5410     -0.00000
     10       7.1239     -0.00000
     11       7.6836     -0.00000
     12       8.7557     -0.00000
     13      19.4571      0.00000
     14      19.8130      0.00000
     15      22.1294      0.00000
     16      22.9734      0.00000
     17      24.6392      0.00000
     18      26.2235      0.00000
     19      26.9159      0.00000
     20      28.5246      0.00000
     21      34.1987      0.00000
     22      36.3849      0.00000
     23      37.7919      0.00000
     24      38.5706      0.00000
     25      40.8243      0.00000
     26      41.5063      0.00000
     27      43.1080      0.00000
     28      45.0599      0.00000
     29      47.6368      0.00000
     30      48.0748      0.00000
     31      49.5961      0.00000
     32      51.9681      0.00000

 k-point   104 :       0.2500   -0.0833    0.4167
  band No.  band energies     occupation 
      1       1.3454      1.00000
      2       2.6350      1.00000
      3       4.2520      1.00000
      4       4.3335      1.00000
      5       4.6678      1.00000
      6       4.6845      1.00000
      7       6.4328     -0.00000
      8       6.6332     -0.00000
      9       7.2813     -0.00000
     10       7.6013     -0.00000
     11       7.6529     -0.00000
     12       9.2287     -0.00000
     13      15.7036      0.00000
     14      18.3411      0.00000
     15      20.4173      0.00000
     16      23.0312      0.00000
     17      25.3755      0.00000
     18      26.9203      0.00000
     19      30.3088      0.00000
     20      30.6545      0.00000
     21      33.0079      0.00000
     22      34.1410      0.00000
     23      36.0881      0.00000
     24      37.6960      0.00000
     25      40.7195      0.00000
     26      43.6376      0.00000
     27      45.4781      0.00000
     28      47.8701      0.00000
     29      48.0483      0.00000
     30      51.9264      0.00000
     31      52.3658      0.00000
     32      52.6772      0.00000

 k-point   105 :       0.4167   -0.0833    0.4167
  band No.  band energies     occupation 
      1       1.9362      1.00000
      2       2.3164      1.00000
      3       3.9861      1.00000
      4       4.0791      1.00000
      5       5.2428      1.02355
      6       5.2987      0.96194
      7       6.8410     -0.00000
      8       6.9928     -0.00000
      9       7.3569     -0.00000
     10       7.6939     -0.00000
     11       8.1407     -0.00000
     12       8.9233     -0.00000
     13      13.9791      0.00000
     14      15.2651      0.00000
     15      21.8334      0.00000
     16      23.2489      0.00000
     17      25.3002      0.00000
     18      25.3229      0.00000
     19      30.0161      0.00000
     20      30.2903      0.00000
     21      33.9957      0.00000
     22      35.1338      0.00000
     23      36.3716      0.00000
     24      39.7879      0.00000
     25      41.3928      0.00000
     26      43.3395      0.00000
     27      47.6918      0.00000
     28      48.4889      0.00000
     29      50.6941      0.00000
     30      51.3444      0.00000
     31      54.0628      0.00000
     32      54.4427      0.00000

 k-point   106 :      -0.4167   -0.0833    0.4167
  band No.  band energies     occupation 
      1       1.9362      1.00000
      2       2.3164      1.00000
      3       3.9861      1.00000
      4       4.0791      1.00000
      5       5.2428      1.02355
      6       5.2987      0.96194
      7       6.8410     -0.00000
      8       6.9928     -0.00000
      9       7.3569     -0.00000
     10       7.6939     -0.00000
     11       8.1407     -0.00000
     12       8.9233     -0.00000
     13      13.9791      0.00000
     14      15.2651      0.00000
     15      21.8334      0.00000
     16      23.2489      0.00000
     17      25.3002      0.00000
     18      25.3229      0.00000
     19      30.0161      0.00000
     20      30.2903      0.00000
     21      33.9957      0.00000
     22      35.1338      0.00000
     23      36.3716      0.00000
     24      39.7879      0.00000
     25      41.3928      0.00000
     26      43.3395      0.00000
     27      47.6918      0.00000
     28      48.4889      0.00000
     29      50.6941      0.00000
     30      51.3444      0.00000
     31      54.0628      0.00000
     32      54.4427      0.00000

 k-point   107 :      -0.2500   -0.0833    0.4167
  band No.  band energies     occupation 
      1       1.3454      1.00000
      2       2.6350      1.00000
      3       4.2520      1.00000
      4       4.3335      1.00000
      5       4.6678      1.00000
      6       4.6845      1.00000
      7       6.4328     -0.00000
      8       6.6332     -0.00000
      9       7.2813     -0.00000
     10       7.6013     -0.00000
     11       7.6529     -0.00000
     12       9.2287     -0.00000
     13      15.7036      0.00000
     14      18.3411      0.00000
     15      20.4173      0.00000
     16      23.0312      0.00000
     17      25.3755      0.00000
     18      26.9203      0.00000
     19      30.3088      0.00000
     20      30.6545      0.00000
     21      33.0079      0.00000
     22      34.1410      0.00000
     23      36.0881      0.00000
     24      37.6960      0.00000
     25      40.7195      0.00000
     26      43.6376      0.00000
     27      45.4781      0.00000
     28      47.8701      0.00000
     29      48.0483      0.00000
     30      51.9264      0.00000
     31      52.3658      0.00000
     32      52.6772      0.00000

 k-point   108 :      -0.0833   -0.0833    0.4167
  band No.  band energies     occupation 
      1       0.7226      1.00000
      2       2.4883      1.00000
      3       4.1448      1.00000
      4       4.8160      1.00005
      5       5.0113      1.00490
      6       5.4059      0.64120
      7       5.9531     -0.00086
      8       6.0260     -0.00014
      9       6.5410     -0.00000
     10       7.1239     -0.00000
     11       7.6836     -0.00000
     12       8.7557     -0.00000
     13      19.4571      0.00000
     14      19.8130      0.00000
     15      22.1294      0.00000
     16      22.9734      0.00000
     17      24.6392      0.00000
     18      26.2235      0.00000
     19      26.9159      0.00000
     20      28.5246      0.00000
     21      34.1987      0.00000
     22      36.3849      0.00000
     23      37.7919      0.00000
     24      38.5706      0.00000
     25      40.8243      0.00000
     26      41.5063      0.00000
     27      43.1080      0.00000
     28      45.0599      0.00000
     29      47.6368      0.00000
     30      48.0748      0.00000
     31      49.5961      0.00000
     32      51.9681      0.00000


--------------------------------------------------------------------------------------------------------


 soft charge-density along one line, spin component           1
         0         1         2         3         4         5         6         7         8         9
 total charge-density along one line
 
 soft charge-density along one line, spin component           2
         0         1         2         3         4         5         6         7         8         9
 total charge-density along one line
 
 pseudopotential strength for first ion, spin component:           1
 -5.810  -0.000   0.000   0.000  -0.000  -6.334  -0.000   0.000
 -0.000  -5.810   0.000  -0.000   0.000  -0.000  -6.334   0.000
  0.000   0.000  -5.985   0.000   0.000   0.000   0.000  -6.504
  0.000  -0.000   0.000  -5.810  -0.000   0.000  -0.000   0.000
 -0.000   0.000   0.000  -0.000  -5.985  -0.000   0.000   0.000
 -6.334  -0.000   0.000   0.000  -0.000  -6.817  -0.000   0.000
 -0.000  -6.334   0.000  -0.000   0.000  -0.000  -6.817   0.000
  0.000   0.000  -6.504   0.000   0.000   0.000   0.000  -6.982
  0.000  -0.000   0.000  -6.334  -0.000   0.000  -0.000   0.000
 -0.000   0.000   0.000  -0.000  -6.504  -0.000   0.000   0.000
  0.000  -0.000  -0.000   0.000  -0.000   0.000  -0.000  -0.000
  0.000  -0.000  -0.000   0.000  -0.000   0.000  -0.000  -0.000
 -0.000  -0.000  -0.000   0.000  -0.000  -0.000  -0.000  -0.000
  0.000   0.000  -0.000  -0.000   0.000   0.000   0.000  -0.000
  0.000   0.000   0.000  -0.000   0.000   0.000   0.000   0.000
 -0.000  -0.000  -0.000   0.000  -0.000  -0.000  -0.000  -0.000
  0.000   0.000  -0.000  -0.000   0.000   0.000   0.000  -0.000
  0.000   0.000   0.000  -0.000  -0.000   0.000   0.000   0.000
 pseudopotential strength for first ion, spin component:           2
 -4.347  -0.000  -0.000  -0.000   0.000  -4.918  -0.000  -0.000
 -0.000  -4.347  -0.000  -0.000  -0.000  -0.000  -4.918  -0.000
 -0.000  -0.000  -4.115   0.000  -0.000  -0.000  -0.000  -4.691
 -0.000  -0.000   0.000  -4.347  -0.000  -0.000  -0.000   0.000
  0.000  -0.000  -0.000  -0.000  -4.115   0.000  -0.000  -0.000
 -4.918  -0.000  -0.000  -0.000   0.000  -5.445  -0.000  -0.000
 -0.000  -4.918  -0.000  -0.000  -0.000  -0.000  -5.445  -0.000
 -0.000  -0.000  -4.691   0.000  -0.000  -0.000  -0.000  -5.223
 -0.000  -0.000   0.000  -4.918  -0.000  -0.000  -0.000   0.000
  0.000  -0.000  -0.000  -0.000  -4.691   0.000  -0.000  -0.000
 -0.000   0.000  -0.000   0.000   0.000  -0.000   0.000  -0.000
 -0.000   0.000  -0.000   0.000   0.000  -0.000   0.000  -0.000
 -0.000  -0.000  -0.000  -0.000  -0.000  -0.000  -0.000  -0.000
 -0.000   0.000   0.000  -0.000  -0.000  -0.000   0.000   0.000
  0.000  -0.000   0.000  -0.000  -0.000   0.000  -0.000   0.000
 -0.000  -0.000  -0.000  -0.000  -0.000  -0.000  -0.000  -0.000
 -0.000   0.000   0.000  -0.000  -0.000  -0.000   0.000   0.000
  0.000  -0.000   0.000  -0.000  -0.000   0.000  -0.000   0.000
 total augmentation occupancy for first ion, spin component:           1
  2.232  -0.000   0.000  -0.000  -0.000  -1.185   0.000  -0.000   0.000   0.000   0.000  -0.000  -0.000  -0.000  -0.000   0.000
 -0.000   2.232  -0.000   0.000   0.000   0.000  -1.185   0.000  -0.000  -0.000   0.000   0.000  -0.000   0.000  -0.000   0.000
  0.000  -0.000   3.557  -0.000   0.000  -0.000   0.000  -2.235   0.000   0.000  -0.000   0.000   0.000   0.000  -0.000  -0.000
 -0.000   0.000  -0.000   2.232  -0.000   0.000  -0.000   0.000  -1.185   0.000  -0.000   0.000  -0.000   0.000  -0.000   0.000
 -0.000   0.000   0.000  -0.000   3.557   0.000  -0.000   0.000   0.000  -2.235   0.000  -0.000   0.000   0.000  -0.000  -0.000
 -1.185   0.000  -0.000   0.000   0.000   1.525   0.000   0.000  -0.000  -0.000  -0.000   0.000   0.000  -0.000   0.000  -0.000
  0.000  -1.185   0.000  -0.000  -0.000   0.000   1.525  -0.000   0.000   0.000  -0.000   0.000  -0.000  -0.000   0.000   0.000
 -0.000   0.000  -2.235   0.000   0.000   0.000  -0.000   2.177   0.000  -0.000   0.000  -0.000  -0.000  -0.000   0.000   0.000
  0.000  -0.000   0.000  -1.185   0.000  -0.000   0.000   0.000   1.525  -0.000  -0.000   0.000  -0.000  -0.000  -0.000  -0.000
  0.000  -0.000   0.000   0.000  -2.235  -0.000   0.000  -0.000  -0.000   2.177  -0.000   0.000   0.000  -0.000  -0.000   0.000
  0.000   0.000  -0.000  -0.000   0.000  -0.000  -0.000   0.000  -0.000  -0.000   2.334  -0.266   0.000   0.000   0.000  -0.000
 -0.000   0.000   0.000   0.000  -0.000   0.000   0.000  -0.000   0.000   0.000  -0.266   0.036  -0.000  -0.000  -0.000   0.000
 -0.000  -0.000   0.000  -0.000   0.000   0.000  -0.000  -0.000  -0.000   0.000   0.000  -0.000   0.283   0.000  -0.000  -0.024
 -0.000   0.000   0.000   0.000   0.000  -0.000  -0.000  -0.000  -0.000  -0.000   0.000  -0.000   0.000   0.283  -0.000   0.000
 -0.000  -0.000  -0.000  -0.000  -0.000   0.000   0.000   0.000  -0.000  -0.000   0.000  -0.000  -0.000  -0.000   0.283  -0.000
  0.000   0.000  -0.000   0.000  -0.000  -0.000   0.000   0.000  -0.000   0.000  -0.000   0.000  -0.024   0.000  -0.000   0.002
  0.000  -0.000  -0.000  -0.000  -0.000   0.000   0.000   0.000   0.000   0.000  -0.000   0.000  -0.000  -0.024   0.000   0.000
  0.000  -0.000   0.000   0.000   0.000  -0.000  -0.000  -0.000   0.000   0.000  -0.000   0.000   0.000   0.000  -0.024  -0.000
 total augmentation occupancy for first ion, spin component:           2
  1.881  -0.000   0.000  -0.000  -0.000  -0.784   0.000  -0.000   0.000   0.000   0.000  -0.000  -0.000  -0.000  -0.000   0.000
 -0.000   1.881  -0.000   0.000   0.000   0.000  -0.784   0.000  -0.000  -0.000   0.000   0.000  -0.000   0.000   0.000   0.000
  0.000  -0.000   3.083  -0.000   0.000  -0.000   0.000  -1.377   0.000   0.000   0.000  -0.000   0.000   0.000  -0.000  -0.000
 -0.000   0.000  -0.000   1.881  -0.000   0.000  -0.000   0.000  -0.784   0.000  -0.000   0.000   0.000   0.000  -0.000   0.000
 -0.000   0.000   0.000  -0.000   3.083   0.000  -0.000   0.000   0.000  -1.377   0.000  -0.000   0.000  -0.000  -0.000  -0.000
 -0.784   0.000  -0.000   0.000   0.000   0.083   0.000  -0.000  -0.000  -0.000  -0.000   0.000   0.000  -0.000   0.000  -0.000
  0.000  -0.784   0.000  -0.000  -0.000   0.000   0.083   0.000  -0.000   0.000  -0.000   0.000  -0.000  -0.000   0.000   0.000
 -0.000   0.000  -1.377   0.000   0.000  -0.000   0.000   0.391  -0.000  -0.000  -0.000   0.000  -0.000  -0.000   0.000   0.000
  0.000  -0.000   0.000  -0.784   0.000  -0.000  -0.000  -0.000   0.083   0.000  -0.000   0.000  -0.000  -0.000   0.000   0.000
  0.000  -0.000   0.000   0.000  -1.377  -0.000   0.000  -0.000   0.000   0.391  -0.000   0.000  -0.000   0.000   0.000   0.000
  0.000   0.000   0.000  -0.000   0.000  -0.000  -0.000  -0.000  -0.000  -0.000  -0.327   0.098   0.000   0.000  -0.000   0.000
 -0.000   0.000  -0.000   0.000  -0.000   0.000   0.000   0.000   0.000   0.000   0.098  -0.017  -0.000  -0.000  -0.000   0.000
 -0.000  -0.000   0.000   0.000   0.000   0.000  -0.000  -0.000  -0.000  -0.000   0.000  -0.000  -0.042   0.000   0.000   0.006
 -0.000   0.000   0.000   0.000  -0.000  -0.000  -0.000  -0.000  -0.000   0.000   0.000  -0.000   0.000  -0.042  -0.000  -0.000
 -0.000   0.000  -0.000  -0.000  -0.000   0.000   0.000   0.000   0.000   0.000  -0.000  -0.000   0.000  -0.000  -0.042  -0.000
  0.000   0.000  -0.000   0.000  -0.000  -0.000   0.000   0.000   0.000   0.000   0.000   0.000   0.006  -0.000  -0.000  -0.001
  0.000  -0.000  -0.000  -0.000   0.000   0.000   0.000   0.000   0.000  -0.000  -0.000   0.000  -0.000   0.006   0.000   0.000
  0.000  -0.000   0.000   0.000   0.000  -0.000  -0.000  -0.000   0.000  -0.000   0.000  -0.000   0.000   0.000   0.006   0.000


------------------------ aborting loop because EDIFF is reached ----------------------------------------


    CHARGE:  cpu time    0.0160: real time    0.0166
    FORLOC:  cpu time    0.0000: real time    0.0001
    FORNL :  cpu time    0.0550: real time    0.0545
    STRESS:  cpu time    0.3020: real time    0.3017
    FORCOR:  cpu time    0.0030: real time    0.0031
    FORHAR:  cpu time    0.0000: real time    0.0005
    MIXING:  cpu time    0.0010: real time    0.0004
    OFIELD:  cpu time    0.0000: real time    0.0000

  FORCE on cell =-STRESS in cart. coord.  units (eV):
  Direction    XX          YY          ZZ          XY          YZ          ZX
  --------------------------------------------------------------------------------------
  Alpha Z   118.17525   118.17525   118.17525
  Ewald    -390.89368  -390.89368  -390.89368     0.00000     0.00000     0.00000
  Hartree    64.67860    64.67860    64.67860     0.00000    -0.00000    -0.00000
  E(xc)     -79.16677   -79.16677   -79.16677    -0.00000     0.00000     0.00000
  Local     116.14424   116.14424   116.14425    -0.00000     0.00000     0.00000
  n-local   -52.16312   -52.16312   -52.16312     0.00000     0.00000     0.00000
  augment    77.55600    77.55600    77.55600    -0.00000    -0.00000     0.00000
  Kinetic   144.71497   144.71497   144.71497    -0.00000     0.00000     0.00000
  Fock        0.00000     0.00000     0.00000     0.00000     0.00000     0.00000
  -------------------------------------------------------------------------------------
  Total      -0.95451    -0.95451    -0.95451    -0.00000     0.00000     0.00000
  in kB     -65.37194   -65.37198   -65.37190    -0.00003     0.00007     0.00005
  external pressure =      -65.37 kB  Pullay stress =        0.00 kB


 VOLUME and BASIS-vectors are now :
 -----------------------------------------------------------------------------
  energy-cutoff  :      500.00
  volume of cell :       23.39
      direct lattice vectors                 reciprocal lattice vectors
     2.860000000  0.000000000  0.000000000     0.349650350  0.000000000  0.000000000
     0.000000000  2.860000000  0.000000000     0.000000000  0.349650350  0.000000000
     0.000000000  0.000000000  2.860000000     0.000000000  0.000000000  0.349650350

  length of vectors
     2.860000000  2.860000000  2.860000000     0.349650350  0.349650350  0.349650350


 FORCES acting on ions
    electron-ion (+dipol)            ewald-force                    non-local-force                 convergence-correction
 -----------------------------------------------------------------------------------------------
   0.211E-07 0.585E-07 0.126E-07   0.219E-14 -.742E-15 -.130E-14   0.254E-07 0.361E-07 -.723E-07   0.126E-07 -.136E-06 0.282E-07
   -.198E-07 -.476E-09 0.858E-07   -.209E-14 0.143E-14 -.194E-15   0.241E-07 -.151E-08 0.120E-06   -.120E-07 0.109E-06 -.483E-08
 -----------------------------------------------------------------------------------------------
   0.121E-08 0.580E-07 0.985E-07   0.102E-15 0.685E-15 -.150E-14   0.495E-07 0.346E-07 0.481E-07   0.567E-09 -.271E-07 0.234E-07
 
 
 POSITION                                       TOTAL-FORCE (eV/Angst)
 -----------------------------------------------------------------------------------
      0.00000      0.00000      0.00000         0.000000     -0.000000     -0.000000
      1.43000      1.43000      1.43000        -0.000000      0.000000      0.000000
 -----------------------------------------------------------------------------------
    total drift:                                0.000000      0.000000      0.000000


--------------------------------------------------------------------------------------------------------



  FREE ENERGIE OF THE ION-ELECTRON SYSTEM (eV)
  ---------------------------------------------------
  free  energy   TOTEN  =       -16.43575493 eV

  energy  without entropy=      -16.41800924  energy(sigma->0) =      -16.42983970
 


--------------------------------------------------------------------------------------------------------


    POTLOK:  cpu time    0.0110: real time    0.0110


--------------------------------------------------------------------------------------------------------




--------------------------------------------------------------------------------------------------------


  
 reached required accuracy - stopping structural energy minimisation
     LOOP+:  cpu time   53.4829: real time   53.6939
    4ORBIT:  cpu time    0.0000: real time    0.0000

 total amount of memory used by VASP on root node    42334. kBytes
========================================================================

   base      :      30000. kBytes
   nonl-proj :       9475. kBytes
   fftplans  :         62. kBytes
   grid      :        413. kBytes
   one-center:         62. kBytes
   wavefun   :       2322. kBytes
 
  
  
 General timing and accounting informations for this job:
 ========================================================
  
                  Total CPU time used (sec):       55.368
                            User time (sec):       52.502
                          System time (sec):        2.866
                         Elapsed time (sec):       56.014
  
                   Maximum memory used (kb):       85712.
                   Average memory used (kb):           0.
  
                          Minor page faults:      1078014
                          Major page faults:            0
                 Voluntary context switches:         7949
