<?xml version="1.0" encoding="ISO-8859-1"?>
<modeling>
 <generator>
  <i name="program" type="string">vasp </i>
  <i name="version" type="string">5.4.1  </i>
  <i name="subversion" type="string">24Jun15 (build May 02 2016 14:41:14) complex                          parallel </i>
  <i name="platform" type="string">IFC91_ompi </i>
  <i name="date" type="string">2025 11 12 </i>
  <i name="time" type="string">12:15:48 </i>
 </generator>
 <incar>
  <i type="string" name="SYSTEM"> Fe Bulk</i>
  <i type="int" name="ISTART">     0</i>
  <i type="string" name="PREC">normal   ! precision of the calculation</i>
  <i type="string" name="ALGO"> N        ! Electronic minimisation algo</i>
  <i type="int" name="ISPIN">     2</i>
  <i type="int" name="MAXMIX">    40</i>
  <i type="int" name="NELMIN">     6</i>
  <i type="int" name="IBRION">     2</i>
  <i name="EDIFF">      0.00001000</i>
  <i name="EDIFFG">     -0.01000000</i>
  <i type="int" name="NSW">    20</i>
  <i type="int" name="ISYM">     0</i>
  <i type="int" name="NBLOCK">     1</i>
  <i name="ENCUT">    600.00000000</i>
  <i name="POTIM">      0.50000000</i>
  <i type="int" name="ISMEAR">     1</i>
  <i name="SIGMA">      0.20000000</i>
  <i type="int" name="NWRITE">     2</i>
  <i type="logical" name="LWAVE"> F  </i>
  <i type="logical" name="LCHARG"> F  </i>
  <v type="int" name="KPOINT_BSE">    -1     0     0     0</v>
  <i type="string" name="GGA"> PE       ! Perdew-Burke-Ernzerhof XC (P</i>
 </incar>
 <kpoints>
  <generation param="Monkhorst-Pack">
   <v type="int" name="divisions">       6        6        6 </v>
   <v name="usershift">      0.00000000       0.00000000       0.00000000 </v>
   <v name="genvec1">      0.16666667       0.00000000       0.00000000 </v>
   <v name="genvec2">      0.00000000       0.16666667       0.00000000 </v>
   <v name="genvec3">      0.00000000       0.00000000       0.16666667 </v>
   <v name="shift">      0.50000000       0.50000000       0.50000000 </v>
  </generation>
  <varray name="kpointlist" >
   <v>       0.08333333       0.08333333       0.08333333 </v>
   <v>       0.25000000       0.08333333       0.08333333 </v>
   <v>       0.41666667       0.08333333       0.08333333 </v>
   <v>      -0.41666667       0.08333333       0.08333333 </v>
   <v>      -0.25000000       0.08333333       0.08333333 </v>
   <v>      -0.08333333       0.08333333       0.08333333 </v>
   <v>       0.08333333       0.25000000       0.08333333 </v>
   <v>       0.25000000       0.25000000       0.08333333 </v>
   <v>       0.41666667       0.25000000       0.08333333 </v>
   <v>      -0.41666667       0.25000000       0.08333333 </v>
   <v>      -0.25000000       0.25000000       0.08333333 </v>
   <v>      -0.08333333       0.25000000       0.08333333 </v>
   <v>       0.08333333       0.41666667       0.08333333 </v>
   <v>       0.25000000       0.41666667       0.08333333 </v>
   <v>       0.41666667       0.41666667       0.08333333 </v>
   <v>      -0.41666667       0.41666667       0.08333333 </v>
   <v>      -0.25000000       0.41666667       0.08333333 </v>
   <v>      -0.08333333       0.41666667       0.08333333 </v>
   <v>       0.08333333      -0.41666667       0.08333333 </v>
   <v>       0.25000000      -0.41666667       0.08333333 </v>
   <v>       0.41666667      -0.41666667       0.08333333 </v>
   <v>      -0.41666667      -0.41666667       0.08333333 </v>
   <v>      -0.25000000      -0.41666667       0.08333333 </v>
   <v>      -0.08333333      -0.41666667       0.08333333 </v>
   <v>       0.08333333      -0.25000000       0.08333333 </v>
   <v>       0.25000000      -0.25000000       0.08333333 </v>
   <v>       0.41666667      -0.25000000       0.08333333 </v>
   <v>      -0.41666667      -0.25000000       0.08333333 </v>
   <v>      -0.25000000      -0.25000000       0.08333333 </v>
   <v>      -0.08333333      -0.25000000       0.08333333 </v>
   <v>       0.08333333      -0.08333333       0.08333333 </v>
   <v>       0.25000000      -0.08333333       0.08333333 </v>
   <v>       0.41666667      -0.08333333       0.08333333 </v>
   <v>      -0.41666667      -0.08333333       0.08333333 </v>
   <v>      -0.25000000      -0.08333333       0.08333333 </v>
   <v>      -0.08333333      -0.08333333       0.08333333 </v>
   <v>       0.08333333       0.08333333       0.25000000 </v>
   <v>       0.25000000       0.08333333       0.25000000 </v>
   <v>       0.41666667       0.08333333       0.25000000 </v>
   <v>      -0.41666667       0.08333333       0.25000000 </v>
   <v>      -0.25000000       0.08333333       0.25000000 </v>
   <v>      -0.08333333       0.08333333       0.25000000 </v>
   <v>       0.08333333       0.25000000       0.25000000 </v>
   <v>       0.25000000       0.25000000       0.25000000 </v>
   <v>       0.41666667       0.25000000       0.25000000 </v>
   <v>      -0.41666667       0.25000000       0.25000000 </v>
   <v>      -0.25000000       0.25000000       0.25000000 </v>
   <v>      -0.08333333       0.25000000       0.25000000 </v>
   <v>       0.08333333       0.41666667       0.25000000 </v>
   <v>       0.25000000       0.41666667       0.25000000 </v>
   <v>       0.41666667       0.41666667       0.25000000 </v>
   <v>      -0.41666667       0.41666667       0.25000000 </v>
   <v>      -0.25000000       0.41666667       0.25000000 </v>
   <v>      -0.08333333       0.41666667       0.25000000 </v>
   <v>       0.08333333      -0.41666667       0.25000000 </v>
   <v>       0.25000000      -0.41666667       0.25000000 </v>
   <v>       0.41666667      -0.41666667       0.25000000 </v>
   <v>      -0.41666667      -0.41666667       0.25000000 </v>
   <v>      -0.25000000      -0.41666667       0.25000000 </v>
   <v>      -0.08333333      -0.41666667       0.25000000 </v>
   <v>       0.08333333      -0.25000000       0.25000000 </v>
   <v>       0.25000000      -0.25000000       0.25000000 </v>
   <v>       0.41666667      -0.25000000       0.25000000 </v>
   <v>      -0.41666667      -0.25000000       0.25000000 </v>
   <v>      -0.25000000      -0.25000000       0.25000000 </v>
   <v>      -0.08333333      -0.25000000       0.25000000 </v>
   <v>       0.08333333      -0.08333333       0.25000000 </v>
   <v>       0.25000000      -0.08333333       0.25000000 </v>
   <v>       0.41666667      -0.08333333       0.25000000 </v>
   <v>      -0.41666667      -0.08333333       0.25000000 </v>
   <v>      -0.25000000      -0.08333333       0.25000000 </v>
   <v>      -0.08333333      -0.08333333       0.25000000 </v>
   <v>       0.08333333       0.08333333       0.41666667 </v>
   <v>       0.25000000       0.08333333       0.41666667 </v>
   <v>       0.41666667       0.08333333       0.41666667 </v>
   <v>      -0.41666667       0.08333333       0.41666667 </v>
   <v>      -0.25000000       0.08333333       0.41666667 </v>
   <v>      -0.08333333       0.08333333       0.41666667 </v>
   <v>       0.08333333       0.25000000       0.41666667 </v>
   <v>       0.25000000       0.25000000       0.41666667 </v>
   <v>       0.41666667       0.25000000       0.41666667 </v>
   <v>      -0.41666667       0.25000000       0.41666667 </v>
   <v>      -0.25000000       0.25000000       0.41666667 </v>
   <v>      -0.08333333       0.25000000       0.41666667 </v>
   <v>       0.08333333       0.41666667       0.41666667 </v>
   <v>       0.25000000       0.41666667       0.41666667 </v>
   <v>       0.41666667       0.41666667       0.41666667 </v>
   <v>      -0.41666667       0.41666667       0.41666667 </v>
   <v>      -0.25000000       0.41666667       0.41666667 </v>
   <v>      -0.08333333       0.41666667       0.41666667 </v>
   <v>       0.08333333      -0.41666667       0.41666667 </v>
   <v>       0.25000000      -0.41666667       0.41666667 </v>
   <v>       0.41666667      -0.41666667       0.41666667 </v>
   <v>      -0.41666667      -0.41666667       0.41666667 </v>
   <v>      -0.25000000      -0.41666667       0.41666667 </v>
   <v>      -0.08333333      -0.41666667       0.41666667 </v>
   <v>       0.08333333      -0.25000000       0.41666667 </v>
   <v>       0.25000000      -0.25000000       0.41666667 </v>
   <v>       0.41666667      -0.25000000       0.41666667 </v>
   <v>      -0.41666667      -0.25000000       0.41666667 </v>
   <v>      -0.25000000      -0.25000000       0.41666667 </v>
   <v>      -0.08333333      -0.25000000       0.41666667 </v>
   <v>       0.08333333      -0.08333333       0.41666667 </v>
   <v>       0.25000000      -0.08333333       0.41666667 </v>
   <v>       0.41666667      -0.08333333       0.41666667 </v>
   <v>      -0.41666667      -0.08333333       0.41666667 </v>
   <v>      -0.25000000      -0.08333333       0.41666667 </v>
   <v>      -0.08333333      -0.08333333       0.41666667 </v>
  </varray>
  <varray name="weights" >
   <v>       0.00925926 </v>
   <v>       0.00925926 </v>
   <v>       0.00925926 </v>
   <v>       0.00925926 </v>
   <v>       0.00925926 </v>
   <v>       0.00925926 </v>
   <v>       0.00925926 </v>
   <v>       0.00925926 </v>
   <v>       0.00925926 </v>
   <v>       0.00925926 </v>
   <v>       0.00925926 </v>
   <v>       0.00925926 </v>
   <v>       0.00925926 </v>
   <v>       0.00925926 </v>
   <v>       0.00925926 </v>
   <v>       0.00925926 </v>
   <v>       0.00925926 </v>
   <v>       0.00925926 </v>
   <v>       0.00925926 </v>
   <v>       0.00925926 </v>
   <v>       0.00925926 </v>
   <v>       0.00925926 </v>
   <v>       0.00925926 </v>
   <v>       0.00925926 </v>
   <v>       0.00925926 </v>
   <v>       0.00925926 </v>
   <v>       0.00925926 </v>
   <v>       0.00925926 </v>
   <v>       0.00925926 </v>
   <v>       0.00925926 </v>
   <v>       0.00925926 </v>
   <v>       0.00925926 </v>
   <v>       0.00925926 </v>
   <v>       0.00925926 </v>
   <v>       0.00925926 </v>
   <v>       0.00925926 </v>
   <v>       0.00925926 </v>
   <v>       0.00925926 </v>
   <v>       0.00925926 </v>
   <v>       0.00925926 </v>
   <v>       0.00925926 </v>
   <v>       0.00925926 </v>
   <v>       0.00925926 </v>
   <v>       0.00925926 </v>
   <v>       0.00925926 </v>
   <v>       0.00925926 </v>
   <v>       0.00925926 </v>
   <v>       0.00925926 </v>
   <v>       0.00925926 </v>
   <v>       0.00925926 </v>
   <v>       0.00925926 </v>
   <v>       0.00925926 </v>
   <v>       0.00925926 </v>
   <v>       0.00925926 </v>
   <v>       0.00925926 </v>
   <v>       0.00925926 </v>
   <v>       0.00925926 </v>
   <v>       0.00925926 </v>
   <v>       0.00925926 </v>
   <v>       0.00925926 </v>
   <v>       0.00925926 </v>
   <v>       0.00925926 </v>
   <v>       0.00925926 </v>
   <v>       0.00925926 </v>
   <v>       0.00925926 </v>
   <v>       0.00925926 </v>
   <v>       0.00925926 </v>
   <v>       0.00925926 </v>
   <v>       0.00925926 </v>
   <v>       0.00925926 </v>
   <v>       0.00925926 </v>
   <v>       0.00925926 </v>
   <v>       0.00925926 </v>
   <v>       0.00925926 </v>
   <v>       0.00925926 </v>
   <v>       0.00925926 </v>
   <v>       0.00925926 </v>
   <v>       0.00925926 </v>
   <v>       0.00925926 </v>
   <v>       0.00925926 </v>
   <v>       0.00925926 </v>
   <v>       0.00925926 </v>
   <v>       0.00925926 </v>
   <v>       0.00925926 </v>
   <v>       0.00925926 </v>
   <v>       0.00925926 </v>
   <v>       0.00925926 </v>
   <v>       0.00925926 </v>
   <v>       0.00925926 </v>
   <v>       0.00925926 </v>
   <v>       0.00925926 </v>
   <v>       0.00925926 </v>
   <v>       0.00925926 </v>
   <v>       0.00925926 </v>
   <v>       0.00925926 </v>
   <v>       0.00925926 </v>
   <v>       0.00925926 </v>
   <v>       0.00925926 </v>
   <v>       0.00925926 </v>
   <v>       0.00925926 </v>
   <v>       0.00925926 </v>
   <v>       0.00925926 </v>
   <v>       0.00925926 </v>
   <v>       0.00925926 </v>
   <v>       0.00925926 </v>
   <v>       0.00925926 </v>
   <v>       0.00925926 </v>
   <v>       0.00925926 </v>
  </varray>
 </kpoints>
 <parameters>
  <separator name="general" >
   <i type="string" name="SYSTEM">Fe Bulk</i>
   <i type="logical" name="LCOMPAT"> F  </i>
  </separator>
  <separator name="electronic" >
   <i type="string" name="PREC">normal</i>
   <i name="ENMAX">    600.00000000</i>
   <i name="ENAUG">    511.36800000</i>
   <i name="EDIFF">      0.00001000</i>
   <i type="int" name="IALGO">    38</i>
   <i type="int" name="IWAVPR">    11</i>
   <i type="int" name="NBANDS">    32</i>
   <i name="NELECT">     16.00000000</i>
   <i type="int" name="TURBO">     0</i>
   <i type="int" name="IRESTART">     0</i>
   <i type="int" name="NREBOOT">     0</i>
   <i type="int" name="NMIN">     0</i>
   <i name="EREF">      0.00000000</i>
   <separator name="electronic smearing" >
    <i type="int" name="ISMEAR">     1</i>
    <i name="SIGMA">      0.20000000</i>
    <i name="KSPACING">      0.50000000</i>
    <i type="logical" name="KGAMMA"> T  </i>
   </separator>
   <separator name="electronic projectors" >
    <i type="logical" name="LREAL"> F  </i>
    <v name="ROPT">      0.00000000</v>
    <i type="int" name="LMAXPAW">  -100</i>
    <i type="int" name="LMAXMIX">     2</i>
    <i type="logical" name="NLSPLINE"> F  </i>
   </separator>
   <separator name="electronic startup" >
    <i type="int" name="ISTART">     0</i>
    <i type="int" name="ICHARG">     2</i>
    <i type="int" name="INIWAV">     1</i>
   </separator>
   <separator name="electronic spin" >
    <i type="int" name="ISPIN">     2</i>
    <i type="logical" name="LNONCOLLINEAR"> F  </i>
    <v name="MAGMOM">      1.00000000      1.00000000</v>
    <i name="NUPDOWN">     -1.00000000</i>
    <i type="logical" name="LSORBIT"> F  </i>
    <v name="SAXIS">      0.00000000      0.00000000      1.00000000</v>
    <i type="logical" name="LSPIRAL"> F  </i>
    <v name="QSPIRAL">      0.00000000      0.00000000      0.00000000</v>
    <i type="logical" name="LZEROZ"> F  </i>
   </separator>
   <separator name="electronic exchange-correlation" >
    <i type="logical" name="LASPH"> F  </i>
    <i type="logical" name="LMETAGGA"> F  </i>
   </separator>
   <separator name="electronic convergence" >
    <i type="int" name="NELM">    60</i>
    <i type="int" name="NELMDL">    -5</i>
    <i type="int" name="NELMIN">     6</i>
    <i name="ENINI">    600.00000000</i>
    <separator name="electronic convergence detail" >
     <i type="logical" name="LDIAG"> T  </i>
     <i type="logical" name="LSUBROT"> F  </i>
     <i name="WEIMIN">      0.00100000</i>
     <i name="EBREAK">      0.00000008</i>
     <i name="DEPER">      0.30000000</i>
     <i type="int" name="NRMM">     4</i>
     <i name="TIME">      0.40000000</i>
    </separator>
   </separator>
   <separator name="electronic mixer" >
    <i name="AMIX">      0.40000000</i>
    <i name="BMIX">      1.00000000</i>
    <i name="AMIN">      0.10000000</i>
    <i name="AMIX_MAG">      1.60000000</i>
    <i name="BMIX_MAG">      1.00000000</i>
    <separator name="electronic mixer details" >
     <i type="int" name="IMIX">     4</i>
     <i type="logical" name="MIXFIRST"> F  </i>
     <i type="int" name="MAXMIX">    40</i>
     <i name="WC">    100.00000000</i>
     <i type="int" name="INIMIX">     1</i>
     <i type="int" name="MIXPRE">     1</i>
     <i type="int" name="MREMOVE">     5</i>
    </separator>
   </separator>
   <separator name="electronic dipolcorrection" >
    <i type="logical" name="LDIPOL"> F  </i>
    <i type="logical" name="LMONO"> F  </i>
    <i type="int" name="IDIPOL">     0</i>
    <i name="EPSILON">      1.00000000</i>
    <v name="DIPOL">   -100.00000000   -100.00000000   -100.00000000</v>
    <i name="EFIELD">      0.00000000</i>
   </separator>
  </separator>
  <separator name="grids" >
   <i type="int" name="NGX">    18</i>
   <i type="int" name="NGY">    18</i>
   <i type="int" name="NGZ">    18</i>
   <i type="int" name="NGXF">    36</i>
   <i type="int" name="NGYF">    36</i>
   <i type="int" name="NGZF">    36</i>
   <i type="logical" name="ADDGRID"> F  </i>
  </separator>
  <separator name="ionic" >
   <i type="int" name="NSW">    20</i>
   <i type="int" name="IBRION">     2</i>
   <i type="int" name="ISIF">     2</i>
   <i name="PSTRESS">      0.00000000</i>
   <i name="EDIFFG">     -0.01000000</i>
   <i type="int" name="NFREE">     1</i>
   <i name="POTIM">      0.50000000</i>
   <i name="SMASS">     -3.00000000</i>
   <i name="SCALEE">      1.00000000</i>
  </separator>
  <separator name="ionic md" >
   <i name="TEBEG">      0.00010000</i>
   <i name="TEEND">      0.00010000</i>
   <i type="int" name="NBLOCK">     1</i>
   <i type="int" name="KBLOCK">    20</i>
   <i type="int" name="NPACO">   256</i>
   <i name="APACO">     16.00000000</i>
  </separator>
  <separator name="symmetry" >
   <i type="int" name="ISYM">     0</i>
   <i name="SYMPREC">      0.00001000</i>
  </separator>
  <separator name="dos" >
   <i type="logical" name="LORBIT"> F  </i>
   <v name="RWIGS">     -1.00000000</v>
   <i type="int" name="NEDOS">   301</i>
   <i name="EMIN">     10.00000000</i>
   <i name="EMAX">    -10.00000000</i>
   <i name="EFERMI">      0.00000000</i>
  </separator>
  <separator name="writing" >
   <i type="int" name="NWRITE">     2</i>
   <i type="logical" name="LWAVE"> F  </i>
   <i type="logical" name="LCHARG"> F  </i>
   <i type="logical" name="LPARD"> F  </i>
   <i type="logical" name="LVTOT"> F  </i>
   <i type="logical" name="LVHAR"> F  </i>
   <i type="logical" name="LELF"> F  </i>
   <i type="logical" name="LOPTICS"> F  </i>
   <v name="STM">      0.00000000      0.00000000      0.00000000      0.00000000      0.00000000      0.00000000      0.00000000</v>
  </separator>
  <separator name="performance" >
   <i type="int" name="NPAR">    32</i>
   <i type="int" name="NSIM">     4</i>
   <i type="int" name="NBLK">    -1</i>
   <i type="logical" name="LPLANE"> T  </i>
   <i type="logical" name="LSCALAPACK"> T  </i>
   <i type="logical" name="LSCAAWARE"> T  </i>
   <i type="logical" name="LSCALU"> F  </i>
   <i type="logical" name="LASYNC"> F  </i>
   <i type="logical" name="LORBITALREAL"> F  </i>
  </separator>
  <separator name="miscellaneous" >
   <i type="int" name="IDIOT">     3</i>
   <i type="logical" name="LMUSIC"> F  </i>
   <v name="POMASS">     55.84700000</v>
   <v name="DARWINR">      0.00000000</v>
   <v name="DARWINV">      1.00000000</v>
   <i type="logical" name="LCORR"> T  </i>
  </separator>
  <i type="logical" name="GGA_COMPAT"> T  </i>
  <i type="logical" name="LBERRY"> F  </i>
  <i type="int" name="ICORELEVEL">     0</i>
  <i type="logical" name="LDAU"> F  </i>
  <i type="int" name="I_CONSTRAINED_M">     0</i>
  <separator name="electronic exchange-correlation" >
   <i type="string" name="GGA">PE</i>
   <i type="int" name="VOSKOWN">     0</i>
   <i type="logical" name="LHFCALC"> F  </i>
   <i type="string" name="PRECFOCK"></i>
   <i type="logical" name="LSYMGRAD"> F  </i>
   <i type="logical" name="LHFONE"> F  </i>
   <i type="logical" name="LRHFCALC"> F  </i>
   <i type="logical" name="LTHOMAS"> F  </i>
   <i type="logical" name="LMODELHF"> F  </i>
   <i name="ENCUT4O">     -1.00000000</i>
   <i type="int" name="EXXOEP">     0</i>
   <i type="int" name="FOURORBIT">     0</i>
   <i name="AEXX">      0.00000000</i>
   <i name="HFALPHA">      0.00000000</i>
   <i name="MCALPHA">      0.00000000</i>
   <i name="ALDAX">      1.00000000</i>
   <i name="AGGAX">      1.00000000</i>
   <i name="ALDAC">      1.00000000</i>
   <i name="AGGAC">      1.00000000</i>
   <i type="int" name="NKREDX">     1</i>
   <i type="int" name="NKREDY">     1</i>
   <i type="int" name="NKREDZ">     1</i>
   <i type="logical" name="SHIFTRED"> F  </i>
   <i type="logical" name="ODDONLY"> F  </i>
   <i type="logical" name="EVENONLY"> F  </i>
   <i type="int" name="LMAXFOCK">     0</i>
   <i type="int" name="NMAXFOCKAE">     0</i>
   <i type="logical" name="LFOCKAEDFT"> F  </i>
   <i name="HFSCREEN">      0.00000000</i>
   <i name="HFSCREENC">      0.00000000</i>
   <i type="int" name="NBANDSGWLOW">     0</i>
  </separator>
  <separator name="vdW DFT" >
   <i type="logical" name="LUSE_VDW"> F  </i>
   <i name="Zab_VDW">     -0.84910000</i>
   <i name="PARAM1">      0.12340000</i>
   <i name="PARAM2">      1.00000000</i>
   <i name="PARAM3">      0.00000000</i>
  </separator>
  <separator name="model GW" >
   <i type="int" name="MODEL_GW">     0</i>
   <i name="MODEL_EPS0">      7.01809680</i>
   <i name="MODEL_ALPHA">      1.00000000</i>
  </separator>
  <separator name="linear response parameters" >
   <i type="logical" name="LEPSILON"> F  </i>
   <i type="logical" name="LRPA"> F  </i>
   <i type="logical" name="LNABLA"> F  </i>
   <i type="logical" name="LVEL"> F  </i>
   <i type="int" name="KINTER">     0</i>
   <i name="CSHIFT">      0.10000000</i>
   <i name="OMEGAMAX">     -1.00000000</i>
   <i name="DEG_THRESHOLD">      0.00200000</i>
  </separator>
  <separator name="orbital magnetization" >
   <i type="logical" name="NUCIND"> F  </i>
   <v name="MAGPOS">      0.00000000      0.00000000      0.00000000</v>
   <i type="logical" name="LNICSALL"> T  </i>
   <i type="logical" name="ORBITALMAG"> F  </i>
   <i type="logical" name="LMAGBLOCH"> F  </i>
   <i type="logical" name="LCHIMAG"> F  </i>
   <i type="logical" name="LGAUGE"> T  </i>
   <i type="int" name="MAGATOM">     0</i>
   <v name="MAGDIPOL">      0.00000000      0.00000000      0.00000000</v>
   <v name="AVECCONST">      0.00000000      0.00000000      0.00000000</v>
  </separator>
  <separator name="response functions" >
   <i type="logical" name="LADDER"> F  </i>
   <i type="logical" name="LFXC"> F  </i>
   <i type="logical" name="LHARTREE"> T  </i>
   <i type="int" name="IBSE">     0</i>
   <v type="int" name="KPOINT">    -1     0     0     0</v>
   <i type="logical" name="LTCTE"> F  </i>
   <i type="logical" name="LTETE"> F  </i>
   <i type="logical" name="LTRIPLET"> F  </i>
   <i type="logical" name="LFXCEPS"> F  </i>
   <i type="logical" name="LFXHEG"> F  </i>
   <i type="int" name="NATURALO">     0</i>
   <i type="logical" name="L2ORDER"> F  </i>
   <i type="logical" name="LUSEW"> F  </i>
   <i name="ENCUTGW">     -2.00000000</i>
   <i name="ENCUTGWSOFT">     -2.00000000</i>
   <i name="ENCUTLF">     -1.00000000</i>
   <i type="int" name="LMAXMP2">    -1</i>
   <i name="SCISSOR">      0.00000000</i>
   <i type="int" name="NOMEGA">     0</i>
   <i type="int" name="NOMEGAR">     0</i>
   <i type="int" name="NBANDSGW">    -1</i>
   <i type="int" name="NBANDSO">    -1</i>
   <i type="int" name="NBANDSV">    -1</i>
   <i type="int" name="NELM">     1</i>
   <i type="int" name="NELMHF">     1</i>
   <i type="int" name="DIM">     3</i>
   <i type="int" name="ANTIRES">     0</i>
   <i name="OMEGAMAX">    -30.00000000</i>
   <i name="OMEGAMIN">    -30.00000000</i>
   <i name="OMEGATL">   -200.00000000</i>
   <i type="int" name="OMEGAGRID">     0</i>
   <i name="CSHIFT">     -0.10000000</i>
   <i type="logical" name="SELFENERGY"> F  </i>
   <i type="logical" name="LSPECTRAL"> F  </i>
   <i type="logical" name="LSPECTRALGW"> F  </i>
   <i type="logical" name="LSINGLES"> F  </i>
   <i type="logical" name="LFERMIGW"> F  </i>
   <i type="logical" name="ODDONLYGW"> F  </i>
   <i type="logical" name="EVENONLYGW"> F  </i>
   <i type="int" name="NKREDLFX">     1</i>
   <i type="int" name="NKREDLFY">     1</i>
   <i type="int" name="NKREDLFZ">     1</i>
   <i type="int" name="MAXMEM">  1800</i>
   <i type="int" name="TELESCOPE">     0</i>
   <i type="int" name="TAUPAR">     1</i>
   <i type="int" name="OMEGAPAR">    -1</i>
   <i name="LAMBDA">      1.00000000</i>
  </separator>
  <separator name="External order field" >
   <i name="OFIELD_KAPPA">      0.00000000</i>
   <v name="OFIELD_K">      0.00000000      0.00000000      0.00000000</v>
   <i name="OFIELD_Q6_NEAR">      0.00000000</i>
   <i name="OFIELD_Q6_FAR">      0.00000000</i>
   <i name="OFIELD_A">      0.00000000</i>
  </separator>
 </parameters>
 <atominfo>
  <atoms>       2 </atoms>
  <types>       1 </types>
  <array name="atoms" >
   <dimension dim="1">ion</dimension>
   <field type="string">element</field>
   <field type="int">atomtype</field>
   <set>
    <rc><c>Fe</c><c>   1</c></rc>
    <rc><c>Fe</c><c>   1</c></rc>
   </set>
  </array>
  <array name="atomtypes" >
   <dimension dim="1">type</dimension>
   <field type="int">atomspertype</field>
   <field type="string">element</field>
   <field>mass</field>
   <field>valence</field>
   <field type="string">pseudopotential</field>
   <set>
    <rc><c>   2</c><c>Fe</c><c>     55.84700000</c><c>      8.00000000</c><c>  PAW_PBE Fe 06Sep2000                  </c></rc>
   </set>
  </array>
 </atominfo>
 <structure name="initialpos" >
  <crystal>
   <varray name="basis" >
    <v>       2.86000000       0.00000000       0.00000000 </v>
    <v>       0.00000000       2.86000000       0.00000000 </v>
    <v>       0.00000000       0.00000000       2.86000000 </v>
   </varray>
   <i name="volume">     23.39365600 </i>
   <varray name="rec_basis" >
    <v>       0.34965035       0.00000000       0.00000000 </v>
    <v>       0.00000000       0.34965035       0.00000000 </v>
    <v>       0.00000000       0.00000000       0.34965035 </v>
   </varray>
  </crystal>
  <varray name="positions" >
   <v>       0.00000000       0.00000000       0.00000000 </v>
   <v>       0.50000000       0.50000000       0.50000000 </v>
  </varray>
 </structure>
 <calculation>
  <scstep>
   <time name="dav">    2.64    2.64</time>
   <time name="total">    2.67    2.69</time>
   <energy>
    <i name="alphaZ">    118.17524546 </i>
    <i name="ewald">  -1172.68111701 </i>
    <i name="hartreedc">   -227.55063011 </i>
    <i name="XCdc">      7.90836475 </i>
    <i name="pawpsdc">   1109.45345578 </i>
    <i name="pawaedc">  -1124.86183816 </i>
    <i name="eentropy">     -0.00089586 </i>
    <i name="bandstr">    102.27384706 </i>
    <i name="atom">   1188.62725594 </i>
    <i name="e_fr_energy">      1.34368784 </i>
    <i name="e_wo_entrp">      1.34458370 </i>
    <i name="e_0_energy">      1.34398646 </i>
   </energy>
  </scstep>
  <scstep>
   <time name="dav">    4.50    4.50</time>
   <time name="total">    4.51    4.52</time>
   <energy>
    <i name="e_fr_energy">    -18.47051399 </i>
    <i name="e_wo_entrp">    -18.45597402 </i>
    <i name="e_0_energy">    -18.46566734 </i>
   </energy>
  </scstep>
  <scstep>
   <time name="dav">    3.07    3.07</time>
   <time name="total">    3.07    3.08</time>
   <energy>
    <i name="e_fr_energy">    -18.49322424 </i>
    <i name="e_wo_entrp">    -18.47866380 </i>
    <i name="e_0_energy">    -18.48837076 </i>
   </energy>
  </scstep>
  <scstep>
   <time name="dav">    6.62    6.62</time>
   <time name="total">    6.62    6.63</time>
   <energy>
    <i name="e_fr_energy">    -18.49324005 </i>
    <i name="e_wo_entrp">    -18.47867970 </i>
    <i name="e_0_energy">    -18.48838660 </i>
   </energy>
  </scstep>
  <scstep>
   <time name="dav">    3.29    3.29</time>
   <time name="total">    3.32    3.33</time>
   <energy>
    <i name="e_fr_energy">    -18.49324005 </i>
    <i name="e_wo_entrp">    -18.47867970 </i>
    <i name="e_0_energy">    -18.48838660 </i>
   </energy>
  </scstep>
  <scstep>
   <time name="dav">    4.60    4.61</time>
   <time name="total">    4.64    4.66</time>
   <energy>
    <i name="e_fr_energy">    -16.43067072 </i>
    <i name="e_wo_entrp">    -16.44864960 </i>
    <i name="e_0_energy">    -16.43666368 </i>
   </energy>
  </scstep>
  <scstep>
   <time name="dav">    3.27    3.27</time>
   <time name="total">    3.31    3.32</time>
   <energy>
    <i name="e_fr_energy">    -16.37925360 </i>
    <i name="e_wo_entrp">    -16.35955546 </i>
    <i name="e_0_energy">    -16.37268755 </i>
   </energy>
  </scstep>
  <scstep>
   <time name="dav">    5.36    5.40</time>
   <time name="total">    5.40    5.45</time>
   <energy>
    <i name="e_fr_energy">    -16.44614044 </i>
    <i name="e_wo_entrp">    -16.42975837 </i>
    <i name="e_0_energy">    -16.44067975 </i>
   </energy>
  </scstep>
  <scstep>
   <time name="dav">    4.88    4.88</time>
   <time name="total">    4.92    4.93</time>
   <energy>
    <i name="e_fr_energy">    -16.43447983 </i>
    <i name="e_wo_entrp">    -16.41743275 </i>
    <i name="e_0_energy">    -16.42879747 </i>
   </energy>
  </scstep>
  <scstep>
   <time name="dav">    5.16    5.16</time>
   <time name="total">    5.21    5.22</time>
   <energy>
    <i name="e_fr_energy">    -16.43552537 </i>
    <i name="e_wo_entrp">    -16.41815771 </i>
    <i name="e_0_energy">    -16.42973615 </i>
   </energy>
  </scstep>
  <scstep>
   <time name="dav">    4.67    4.67</time>
   <time name="total">    4.71    4.72</time>
   <energy>
    <i name="e_fr_energy">    -16.43488421 </i>
    <i name="e_wo_entrp">    -16.41723247 </i>
    <i name="e_0_energy">    -16.42900030 </i>
   </energy>
  </scstep>
  <scstep>
   <time name="dav">    4.32    4.32</time>
   <time name="total">    4.36    4.38</time>
   <energy>
    <i name="e_fr_energy">    -16.43484199 </i>
    <i name="e_wo_entrp">    -16.41708286 </i>
    <i name="e_0_energy">    -16.42892228 </i>
   </energy>
  </scstep>
  <scstep>
   <time name="dav">    2.27    2.27</time>
   <time name="total">    2.28    2.30</time>
   <energy>
    <i name="alphaZ">    118.17524546 </i>
    <i name="ewald">  -1172.68111701 </i>
    <i name="hartreedc">   -194.10245849 </i>
    <i name="XCdc">      8.42091323 </i>
    <i name="pawpsdc">   1410.84101815 </i>
    <i name="pawaedc">  -1428.78382095 </i>
    <i name="eentropy">     -0.01775108 </i>
    <i name="bandstr">     53.08587156 </i>
    <i name="atom">   1188.62725594 </i>
    <i name="e_fr_energy">    -16.43484319 </i>
    <i name="e_wo_entrp">    -16.41709212 </i>
    <i name="e_0_energy">    -16.42892617 </i>
   </energy>
  </scstep>
  <structure>
   <crystal>
    <varray name="basis" >
     <v>       2.86000000       0.00000000       0.00000000 </v>
     <v>       0.00000000       2.86000000       0.00000000 </v>
     <v>       0.00000000       0.00000000       2.86000000 </v>
    </varray>
    <i name="volume">     23.39365600 </i>
    <varray name="rec_basis" >
     <v>       0.34965035       0.00000000       0.00000000 </v>
     <v>       0.00000000       0.34965035       0.00000000 </v>
     <v>       0.00000000       0.00000000       0.34965035 </v>
    </varray>
   </crystal>
   <varray name="positions" >
    <v>       0.00000000       0.00000000       0.00000000 </v>
    <v>       0.50000000       0.50000000       0.50000000 </v>
   </varray>
  </structure>
  <varray name="forces" >
   <v>       0.00000020       0.00000005       0.00000010 </v>
   <v>      -0.00000020      -0.00000005      -0.00000010 </v>
  </varray>
  <varray name="stress" >
   <v>     -65.82179570      -0.00007560      -0.00007188 </v>
   <v>      -0.00007589     -65.82214209      -0.00005632 </v>
   <v>      -0.00007128      -0.00005637     -65.82190094 </v>
  </varray>
  <energy>
   <i name="e_fr_energy">    -16.43484319 </i>
   <i name="e_wo_entrp">    -16.42892617 </i>
   <i name="e_0_energy">     -0.01775108 </i>
  </energy>
  <time name="totalsc">   55.55   55.79</time>
  <eigenvalues>
   <array>
    <dimension dim="1">band</dimension>
    <dimension dim="2">kpoint</dimension>
    <dimension dim="3">spin</dimension>
    <field>eigene</field>
    <field>occ</field>
    <set>
     <set comment="spin 1">
      <set comment="kpoint 1">
       <r>   -2.2964    1.0000 </r>
       <r>    1.0246    1.0000 </r>
       <r>    1.0246    1.0000 </r>
       <r>    3.1604    1.0000 </r>
       <r>    3.1604    1.0000 </r>
       <r>    3.5006    1.0000 </r>
       <r>    4.3842    1.0000 </r>
       <r>    4.3842    1.0000 </r>
       <r>    4.9700    1.0022 </r>
       <r>    5.4490    0.4602 </r>
       <r>    5.4490    0.4602 </r>
       <r>   14.5621    0.0000 </r>
       <r>   14.5621    0.0000 </r>
       <r>   15.1634    0.0000 </r>
       <r>   22.1848    0.0000 </r>
       <r>   22.1848    0.0000 </r>
       <r>   26.9135    0.0000 </r>
       <r>   28.3421    0.0000 </r>
       <r>   28.3421    0.0000 </r>
       <r>   30.6732    0.0000 </r>
       <r>   32.7400    0.0000 </r>
       <r>   35.2981    0.0000 </r>
       <r>   35.2981    0.0000 </r>
       <r>   36.7751    0.0000 </r>
       <r>   36.7751    0.0000 </r>
       <r>   41.0795    0.0000 </r>
       <r>   41.4062    0.0000 </r>
       <r>   41.4062    0.0000 </r>
       <r>   42.7013    0.0000 </r>
       <r>   48.3397    0.0000 </r>
       <r>   50.3253    0.0000 </r>
       <r>   50.3253    0.0000 </r>
      </set>
      <set comment="kpoint 2">
       <r>   -1.2555    1.0000 </r>
       <r>    1.4061    1.0000 </r>
       <r>    1.4378    1.0000 </r>
       <r>    3.0461    1.0000 </r>
       <r>    3.0987    1.0000 </r>
       <r>    3.9367    1.0000 </r>
       <r>    4.0431    1.0000 </r>
       <r>    4.1698    1.0000 </r>
       <r>    4.5824    1.0000 </r>
       <r>    4.7667    1.0000 </r>
       <r>    5.3882    0.7096 </r>
       <r>   10.5777   -0.0000 </r>
       <r>   16.2181    0.0000 </r>
       <r>   16.6181    0.0000 </r>
       <r>   22.7798    0.0000 </r>
       <r>   24.3616    0.0000 </r>
       <r>   24.7057    0.0000 </r>
       <r>   26.0495    0.0000 </r>
       <r>   29.5408    0.0000 </r>
       <r>   30.7566    0.0000 </r>
       <r>   30.8911    0.0000 </r>
       <r>   32.7292    0.0000 </r>
       <r>   35.2811    0.0000 </r>
       <r>   38.9393    0.0000 </r>
       <r>   39.5726    0.0000 </r>
       <r>   40.9619    0.0000 </r>
       <r>   43.7298    0.0000 </r>
       <r>   44.7039    0.0000 </r>
       <r>   45.4957    0.0000 </r>
       <r>   45.5425    0.0000 </r>
       <r>   46.9329    0.0000 </r>
       <r>   51.6403    0.0000 </r>
      </set>
      <set comment="kpoint 3">
       <r>    0.3979    1.0000 </r>
       <r>    1.4949    1.0000 </r>
       <r>    2.1418    1.0000 </r>
       <r>    2.8421    1.0000 </r>
       <r>    3.2042    1.0000 </r>
       <r>    3.5448    1.0000 </r>
       <r>    3.7346    1.0000 </r>
       <r>    4.0479    1.0000 </r>
       <r>    4.4761    1.0000 </r>
       <r>    4.9753    1.0025 </r>
       <r>    5.1045    1.0196 </r>
       <r>    6.9974   -0.0000 </r>
       <r>   18.7325    0.0000 </r>
       <r>   19.1974    0.0000 </r>
       <r>   21.5503    0.0000 </r>
       <r>   22.4160    0.0000 </r>
       <r>   24.1754    0.0000 </r>
       <r>   25.7928    0.0000 </r>
       <r>   26.5834    0.0000 </r>
       <r>   28.1063    0.0000 </r>
       <r>   33.8125    0.0000 </r>
       <r>   35.9448    0.0000 </r>
       <r>   37.5174    0.0000 </r>
       <r>   37.9456    0.0000 </r>
       <r>   40.3800    0.0000 </r>
       <r>   41.1627    0.0000 </r>
       <r>   42.7123    0.0000 </r>
       <r>   44.6139    0.0000 </r>
       <r>   46.9302    0.0000 </r>
       <r>   47.9052    0.0000 </r>
       <r>   49.0542    0.0000 </r>
       <r>   51.2466    0.0000 </r>
      </set>
      <set comment="kpoint 4">
       <r>    0.3979    1.0000 </r>
       <r>    1.4949    1.0000 </r>
       <r>    2.1418    1.0000 </r>
       <r>    2.8421    1.0000 </r>
       <r>    3.2042    1.0000 </r>
       <r>    3.5448    1.0000 </r>
       <r>    3.7346    1.0000 </r>
       <r>    4.0479    1.0000 </r>
       <r>    4.4761    1.0000 </r>
       <r>    4.9753    1.0025 </r>
       <r>    5.1045    1.0196 </r>
       <r>    6.9974   -0.0000 </r>
       <r>   18.7325    0.0000 </r>
       <r>   19.1974    0.0000 </r>
       <r>   21.5503    0.0000 </r>
       <r>   22.4160    0.0000 </r>
       <r>   24.1754    0.0000 </r>
       <r>   25.7928    0.0000 </r>
       <r>   26.5834    0.0000 </r>
       <r>   28.1063    0.0000 </r>
       <r>   33.8125    0.0000 </r>
       <r>   35.9448    0.0000 </r>
       <r>   37.5174    0.0000 </r>
       <r>   37.9456    0.0000 </r>
       <r>   40.3800    0.0000 </r>
       <r>   41.1627    0.0000 </r>
       <r>   42.7123    0.0000 </r>
       <r>   44.6139    0.0000 </r>
       <r>   46.9302    0.0000 </r>
       <r>   47.9052    0.0000 </r>
       <r>   49.0542    0.0000 </r>
       <r>   51.2466    0.0000 </r>
      </set>
      <set comment="kpoint 5">
       <r>   -1.2555    1.0000 </r>
       <r>    1.4061    1.0000 </r>
       <r>    1.4378    1.0000 </r>
       <r>    3.0461    1.0000 </r>
       <r>    3.0987    1.0000 </r>
       <r>    3.9367    1.0000 </r>
       <r>    4.0431    1.0000 </r>
       <r>    4.1698    1.0000 </r>
       <r>    4.5824    1.0000 </r>
       <r>    4.7667    1.0000 </r>
       <r>    5.3882    0.7096 </r>
       <r>   10.5777   -0.0000 </r>
       <r>   16.2181    0.0000 </r>
       <r>   16.6181    0.0000 </r>
       <r>   22.7798    0.0000 </r>
       <r>   24.3616    0.0000 </r>
       <r>   24.7057    0.0000 </r>
       <r>   26.0495    0.0000 </r>
       <r>   29.5408    0.0000 </r>
       <r>   30.7566    0.0000 </r>
       <r>   30.8911    0.0000 </r>
       <r>   32.7292    0.0000 </r>
       <r>   35.2811    0.0000 </r>
       <r>   38.9393    0.0000 </r>
       <r>   39.5726    0.0000 </r>
       <r>   40.9619    0.0000 </r>
       <r>   43.7298    0.0000 </r>
       <r>   44.7039    0.0000 </r>
       <r>   45.4957    0.0000 </r>
       <r>   45.5425    0.0000 </r>
       <r>   46.9329    0.0000 </r>
       <r>   51.6403    0.0000 </r>
      </set>
      <set comment="kpoint 6">
       <r>   -2.2964    1.0000 </r>
       <r>    1.0246    1.0000 </r>
       <r>    1.0246    1.0000 </r>
       <r>    3.1604    1.0000 </r>
       <r>    3.1604    1.0000 </r>
       <r>    3.5006    1.0000 </r>
       <r>    4.3842    1.0000 </r>
       <r>    4.3842    1.0000 </r>
       <r>    4.9700    1.0022 </r>
       <r>    5.4490    0.4602 </r>
       <r>    5.4490    0.4602 </r>
       <r>   14.5621    0.0000 </r>
       <r>   14.5621    0.0000 </r>
       <r>   15.1634    0.0000 </r>
       <r>   22.1848    0.0000 </r>
       <r>   22.1848    0.0000 </r>
       <r>   26.9135    0.0000 </r>
       <r>   28.3421    0.0000 </r>
       <r>   28.3421    0.0000 </r>
       <r>   30.6732    0.0000 </r>
       <r>   32.7400    0.0000 </r>
       <r>   35.2981    0.0000 </r>
       <r>   35.2981    0.0000 </r>
       <r>   36.7751    0.0000 </r>
       <r>   36.7751    0.0000 </r>
       <r>   41.0795    0.0000 </r>
       <r>   41.4062    0.0000 </r>
       <r>   41.4062    0.0000 </r>
       <r>   42.7013    0.0000 </r>
       <r>   48.3397    0.0000 </r>
       <r>   50.3253    0.0000 </r>
       <r>   50.3253    0.0000 </r>
      </set>
      <set comment="kpoint 7">
       <r>   -1.2555    1.0000 </r>
       <r>    1.4061    1.0000 </r>
       <r>    1.4378    1.0000 </r>
       <r>    3.0461    1.0000 </r>
       <r>    3.0987    1.0000 </r>
       <r>    3.9367    1.0000 </r>
       <r>    4.0431    1.0000 </r>
       <r>    4.1698    1.0000 </r>
       <r>    4.5824    1.0000 </r>
       <r>    4.7667    1.0000 </r>
       <r>    5.3882    0.7096 </r>
       <r>   10.5777   -0.0000 </r>
       <r>   16.2181    0.0000 </r>
       <r>   16.6181    0.0000 </r>
       <r>   22.7798    0.0000 </r>
       <r>   24.3616    0.0000 </r>
       <r>   24.7057    0.0000 </r>
       <r>   26.0495    0.0000 </r>
       <r>   29.5408    0.0000 </r>
       <r>   30.7566    0.0000 </r>
       <r>   30.8911    0.0000 </r>
       <r>   32.7292    0.0000 </r>
       <r>   35.2811    0.0000 </r>
       <r>   38.9393    0.0000 </r>
       <r>   39.5726    0.0000 </r>
       <r>   40.9619    0.0000 </r>
       <r>   43.7298    0.0000 </r>
       <r>   44.7039    0.0000 </r>
       <r>   45.4957    0.0000 </r>
       <r>   45.5425    0.0000 </r>
       <r>   46.9329    0.0000 </r>
       <r>   51.6403    0.0000 </r>
      </set>
      <set comment="kpoint 8">
       <r>   -0.3754    1.0000 </r>
       <r>    1.5245    1.0000 </r>
       <r>    1.9666    1.0000 </r>
       <r>    2.6862    1.0000 </r>
       <r>    2.9872    1.0000 </r>
       <r>    3.3585    1.0000 </r>
       <r>    4.2801    1.0000 </r>
       <r>    4.4192    1.0000 </r>
       <r>    4.4856    1.0000 </r>
       <r>    4.6083    1.0000 </r>
       <r>    5.5471    0.1101 </r>
       <r>   10.8037   -0.0000 </r>
       <r>   13.2141    0.0000 </r>
       <r>   17.6804    0.0000 </r>
       <r>   21.0973    0.0000 </r>
       <r>   23.9279    0.0000 </r>
       <r>   25.2326    0.0000 </r>
       <r>   27.6380    0.0000 </r>
       <r>   28.1841    0.0000 </r>
       <r>   30.4514    0.0000 </r>
       <r>   32.0968    0.0000 </r>
       <r>   34.1040    0.0000 </r>
       <r>   36.2634    0.0000 </r>
       <r>   36.3548    0.0000 </r>
       <r>   39.1709    0.0000 </r>
       <r>   41.7937    0.0000 </r>
       <r>   42.1118    0.0000 </r>
       <r>   45.7865    0.0000 </r>
       <r>   48.1823    0.0000 </r>
       <r>   50.0078    0.0000 </r>
       <r>   50.0581    0.0000 </r>
       <r>   51.9962    0.0000 </r>
      </set>
      <set comment="kpoint 9">
       <r>    0.7473    1.0000 </r>
       <r>    1.3778    1.0000 </r>
       <r>    2.5642    1.0000 </r>
       <r>    2.5654    1.0000 </r>
       <r>    2.9462    1.0000 </r>
       <r>    3.1197    1.0000 </r>
       <r>    4.1897    1.0000 </r>
       <r>    4.2450    1.0000 </r>
       <r>    4.7962    1.0000 </r>
       <r>    5.3676    0.7839 </r>
       <r>    5.4947    0.2764 </r>
       <r>    7.7004   -0.0000 </r>
       <r>   14.7246    0.0000 </r>
       <r>   17.5423    0.0000 </r>
       <r>   19.8332    0.0000 </r>
       <r>   22.5998    0.0000 </r>
       <r>   25.0409    0.0000 </r>
       <r>   26.5533    0.0000 </r>
       <r>   29.9435    0.0000 </r>
       <r>   30.3356    0.0000 </r>
       <r>   32.6403    0.0000 </r>
       <r>   33.7860    0.0000 </r>
       <r>   35.7331    0.0000 </r>
       <r>   37.2045    0.0000 </r>
       <r>   40.0768    0.0000 </r>
       <r>   43.4299    0.0000 </r>
       <r>   45.0706    0.0000 </r>
       <r>   47.3536    0.0000 </r>
       <r>   47.6783    0.0000 </r>
       <r>   51.1650    0.0000 </r>
       <r>   51.7747    0.0000 </r>
       <r>   52.4644    0.0000 </r>
      </set>
      <set comment="kpoint 10">
       <r>    0.7473    1.0000 </r>
       <r>    1.3778    1.0000 </r>
       <r>    2.5642    1.0000 </r>
       <r>    2.5654    1.0000 </r>
       <r>    2.9462    1.0000 </r>
       <r>    3.1197    1.0000 </r>
       <r>    4.1897    1.0000 </r>
       <r>    4.2450    1.0000 </r>
       <r>    4.7962    1.0000 </r>
       <r>    5.3676    0.7839 </r>
       <r>    5.4947    0.2764 </r>
       <r>    7.7004   -0.0000 </r>
       <r>   14.7246    0.0000 </r>
       <r>   17.5423    0.0000 </r>
       <r>   19.8332    0.0000 </r>
       <r>   22.5998    0.0000 </r>
       <r>   25.0409    0.0000 </r>
       <r>   26.5533    0.0000 </r>
       <r>   29.9435    0.0000 </r>
       <r>   30.3356    0.0000 </r>
       <r>   32.6403    0.0000 </r>
       <r>   33.7860    0.0000 </r>
       <r>   35.7331    0.0000 </r>
       <r>   37.2045    0.0000 </r>
       <r>   40.0768    0.0000 </r>
       <r>   43.4299    0.0000 </r>
       <r>   45.0706    0.0000 </r>
       <r>   47.3536    0.0000 </r>
       <r>   47.6783    0.0000 </r>
       <r>   51.1650    0.0000 </r>
       <r>   51.7747    0.0000 </r>
       <r>   52.4644    0.0000 </r>
      </set>
      <set comment="kpoint 11">
       <r>   -0.3754    1.0000 </r>
       <r>    1.5245    1.0000 </r>
       <r>    1.9666    1.0000 </r>
       <r>    2.6862    1.0000 </r>
       <r>    2.9872    1.0000 </r>
       <r>    3.3585    1.0000 </r>
       <r>    4.2801    1.0000 </r>
       <r>    4.4192    1.0000 </r>
       <r>    4.4856    1.0000 </r>
       <r>    4.6083    1.0000 </r>
       <r>    5.5471    0.1101 </r>
       <r>   10.8037   -0.0000 </r>
       <r>   13.2141    0.0000 </r>
       <r>   17.6804    0.0000 </r>
       <r>   21.0973    0.0000 </r>
       <r>   23.9279    0.0000 </r>
       <r>   25.2326    0.0000 </r>
       <r>   27.6380    0.0000 </r>
       <r>   28.1841    0.0000 </r>
       <r>   30.4514    0.0000 </r>
       <r>   32.0968    0.0000 </r>
       <r>   34.1040    0.0000 </r>
       <r>   36.2634    0.0000 </r>
       <r>   36.3548    0.0000 </r>
       <r>   39.1709    0.0000 </r>
       <r>   41.7937    0.0000 </r>
       <r>   42.1118    0.0000 </r>
       <r>   45.7865    0.0000 </r>
       <r>   48.1823    0.0000 </r>
       <r>   50.0078    0.0000 </r>
       <r>   50.0581    0.0000 </r>
       <r>   51.9962    0.0000 </r>
      </set>
      <set comment="kpoint 12">
       <r>   -1.2555    1.0000 </r>
       <r>    1.4061    1.0000 </r>
       <r>    1.4378    1.0000 </r>
       <r>    3.0461    1.0000 </r>
       <r>    3.0987    1.0000 </r>
       <r>    3.9367    1.0000 </r>
       <r>    4.0431    1.0000 </r>
       <r>    4.1698    1.0000 </r>
       <r>    4.5824    1.0000 </r>
       <r>    4.7667    1.0000 </r>
       <r>    5.3882    0.7096 </r>
       <r>   10.5777   -0.0000 </r>
       <r>   16.2181    0.0000 </r>
       <r>   16.6181    0.0000 </r>
       <r>   22.7798    0.0000 </r>
       <r>   24.3616    0.0000 </r>
       <r>   24.7057    0.0000 </r>
       <r>   26.0495    0.0000 </r>
       <r>   29.5408    0.0000 </r>
       <r>   30.7566    0.0000 </r>
       <r>   30.8911    0.0000 </r>
       <r>   32.7292    0.0000 </r>
       <r>   35.2811    0.0000 </r>
       <r>   38.9393    0.0000 </r>
       <r>   39.5726    0.0000 </r>
       <r>   40.9619    0.0000 </r>
       <r>   43.7298    0.0000 </r>
       <r>   44.7039    0.0000 </r>
       <r>   45.4957    0.0000 </r>
       <r>   45.5425    0.0000 </r>
       <r>   46.9329    0.0000 </r>
       <r>   51.6403    0.0000 </r>
      </set>
      <set comment="kpoint 13">
       <r>    0.3979    1.0000 </r>
       <r>    1.4949    1.0000 </r>
       <r>    2.1418    1.0000 </r>
       <r>    2.8421    1.0000 </r>
       <r>    3.2042    1.0000 </r>
       <r>    3.5448    1.0000 </r>
       <r>    3.7346    1.0000 </r>
       <r>    4.0479    1.0000 </r>
       <r>    4.4761    1.0000 </r>
       <r>    4.9753    1.0025 </r>
       <r>    5.1045    1.0196 </r>
       <r>    6.9974   -0.0000 </r>
       <r>   18.7325    0.0000 </r>
       <r>   19.1974    0.0000 </r>
       <r>   21.5503    0.0000 </r>
       <r>   22.4160    0.0000 </r>
       <r>   24.1754    0.0000 </r>
       <r>   25.7928    0.0000 </r>
       <r>   26.5834    0.0000 </r>
       <r>   28.1063    0.0000 </r>
       <r>   33.8125    0.0000 </r>
       <r>   35.9448    0.0000 </r>
       <r>   37.5174    0.0000 </r>
       <r>   37.9456    0.0000 </r>
       <r>   40.3800    0.0000 </r>
       <r>   41.1627    0.0000 </r>
       <r>   42.7123    0.0000 </r>
       <r>   44.6139    0.0000 </r>
       <r>   46.9302    0.0000 </r>
       <r>   47.9052    0.0000 </r>
       <r>   49.0542    0.0000 </r>
       <r>   51.2466    0.0000 </r>
      </set>
      <set comment="kpoint 14">
       <r>    0.7473    1.0000 </r>
       <r>    1.3778    1.0000 </r>
       <r>    2.5642    1.0000 </r>
       <r>    2.5654    1.0000 </r>
       <r>    2.9462    1.0000 </r>
       <r>    3.1197    1.0000 </r>
       <r>    4.1897    1.0000 </r>
       <r>    4.2450    1.0000 </r>
       <r>    4.7962    1.0000 </r>
       <r>    5.3676    0.7839 </r>
       <r>    5.4947    0.2764 </r>
       <r>    7.7004   -0.0000 </r>
       <r>   14.7246    0.0000 </r>
       <r>   17.5423    0.0000 </r>
       <r>   19.8332    0.0000 </r>
       <r>   22.5998    0.0000 </r>
       <r>   25.0409    0.0000 </r>
       <r>   26.5533    0.0000 </r>
       <r>   29.9435    0.0000 </r>
       <r>   30.3356    0.0000 </r>
       <r>   32.6403    0.0000 </r>
       <r>   33.7860    0.0000 </r>
       <r>   35.7331    0.0000 </r>
       <r>   37.2045    0.0000 </r>
       <r>   40.0768    0.0000 </r>
       <r>   43.4299    0.0000 </r>
       <r>   45.0706    0.0000 </r>
       <r>   47.3536    0.0000 </r>
       <r>   47.6783    0.0000 </r>
       <r>   51.1650    0.0000 </r>
       <r>   51.7747    0.0000 </r>
       <r>   52.4644    0.0000 </r>
      </set>
      <set comment="kpoint 15">
       <r>    0.8372    1.0000 </r>
       <r>    1.0011    1.0000 </r>
       <r>    2.2661    1.0000 </r>
       <r>    2.3582    1.0000 </r>
       <r>    3.7590    1.0000 </r>
       <r>    4.3438    1.0000 </r>
       <r>    4.3811    1.0000 </r>
       <r>    4.5863    1.0000 </r>
       <r>    4.5878    1.0000 </r>
       <r>    5.4390    0.5027 </r>
       <r>    6.2971   -0.0000 </r>
       <r>    7.6047   -0.0000 </r>
       <r>   12.6759    0.0000 </r>
       <r>   14.1726    0.0000 </r>
       <r>   21.4132    0.0000 </r>
       <r>   23.0850    0.0000 </r>
       <r>   24.7209    0.0000 </r>
       <r>   25.0225    0.0000 </r>
       <r>   29.7144    0.0000 </r>
       <r>   29.8426    0.0000 </r>
       <r>   33.4288    0.0000 </r>
       <r>   34.6204    0.0000 </r>
       <r>   36.3340    0.0000 </r>
       <r>   39.7459    0.0000 </r>
       <r>   41.1645    0.0000 </r>
       <r>   42.5440    0.0000 </r>
       <r>   47.6934    0.0000 </r>
       <r>   47.8872    0.0000 </r>
       <r>   50.4423    0.0000 </r>
       <r>   50.5548    0.0000 </r>
       <r>   53.0943    0.0000 </r>
       <r>   54.0204    0.0000 </r>
      </set>
      <set comment="kpoint 16">
       <r>    0.8372    1.0000 </r>
       <r>    1.0011    1.0000 </r>
       <r>    2.2661    1.0000 </r>
       <r>    2.3582    1.0000 </r>
       <r>    3.7590    1.0000 </r>
       <r>    4.3438    1.0000 </r>
       <r>    4.3811    1.0000 </r>
       <r>    4.5863    1.0000 </r>
       <r>    4.5878    1.0000 </r>
       <r>    5.4390    0.5027 </r>
       <r>    6.2971   -0.0000 </r>
       <r>    7.6047   -0.0000 </r>
       <r>   12.6759    0.0000 </r>
       <r>   14.1726    0.0000 </r>
       <r>   21.4132    0.0000 </r>
       <r>   23.0850    0.0000 </r>
       <r>   24.7209    0.0000 </r>
       <r>   25.0225    0.0000 </r>
       <r>   29.7144    0.0000 </r>
       <r>   29.8426    0.0000 </r>
       <r>   33.4288    0.0000 </r>
       <r>   34.6204    0.0000 </r>
       <r>   36.3340    0.0000 </r>
       <r>   39.7459    0.0000 </r>
       <r>   41.1645    0.0000 </r>
       <r>   42.5440    0.0000 </r>
       <r>   47.6934    0.0000 </r>
       <r>   47.8872    0.0000 </r>
       <r>   50.4423    0.0000 </r>
       <r>   50.5548    0.0000 </r>
       <r>   53.0943    0.0000 </r>
       <r>   54.0204    0.0000 </r>
      </set>
      <set comment="kpoint 17">
       <r>    0.7473    1.0000 </r>
       <r>    1.3778    1.0000 </r>
       <r>    2.5642    1.0000 </r>
       <r>    2.5654    1.0000 </r>
       <r>    2.9462    1.0000 </r>
       <r>    3.1197    1.0000 </r>
       <r>    4.1897    1.0000 </r>
       <r>    4.2450    1.0000 </r>
       <r>    4.7962    1.0000 </r>
       <r>    5.3676    0.7839 </r>
       <r>    5.4947    0.2764 </r>
       <r>    7.7004   -0.0000 </r>
       <r>   14.7246    0.0000 </r>
       <r>   17.5423    0.0000 </r>
       <r>   19.8332    0.0000 </r>
       <r>   22.5998    0.0000 </r>
       <r>   25.0409    0.0000 </r>
       <r>   26.5533    0.0000 </r>
       <r>   29.9435    0.0000 </r>
       <r>   30.3356    0.0000 </r>
       <r>   32.6403    0.0000 </r>
       <r>   33.7860    0.0000 </r>
       <r>   35.7331    0.0000 </r>
       <r>   37.2045    0.0000 </r>
       <r>   40.0768    0.0000 </r>
       <r>   43.4299    0.0000 </r>
       <r>   45.0706    0.0000 </r>
       <r>   47.3536    0.0000 </r>
       <r>   47.6783    0.0000 </r>
       <r>   51.1650    0.0000 </r>
       <r>   51.7747    0.0000 </r>
       <r>   52.4644    0.0000 </r>
      </set>
      <set comment="kpoint 18">
       <r>    0.3979    1.0000 </r>
       <r>    1.4949    1.0000 </r>
       <r>    2.1418    1.0000 </r>
       <r>    2.8421    1.0000 </r>
       <r>    3.2042    1.0000 </r>
       <r>    3.5448    1.0000 </r>
       <r>    3.7346    1.0000 </r>
       <r>    4.0479    1.0000 </r>
       <r>    4.4761    1.0000 </r>
       <r>    4.9753    1.0025 </r>
       <r>    5.1045    1.0196 </r>
       <r>    6.9974   -0.0000 </r>
       <r>   18.7325    0.0000 </r>
       <r>   19.1974    0.0000 </r>
       <r>   21.5503    0.0000 </r>
       <r>   22.4160    0.0000 </r>
       <r>   24.1754    0.0000 </r>
       <r>   25.7928    0.0000 </r>
       <r>   26.5834    0.0000 </r>
       <r>   28.1063    0.0000 </r>
       <r>   33.8125    0.0000 </r>
       <r>   35.9448    0.0000 </r>
       <r>   37.5174    0.0000 </r>
       <r>   37.9456    0.0000 </r>
       <r>   40.3800    0.0000 </r>
       <r>   41.1627    0.0000 </r>
       <r>   42.7123    0.0000 </r>
       <r>   44.6139    0.0000 </r>
       <r>   46.9302    0.0000 </r>
       <r>   47.9052    0.0000 </r>
       <r>   49.0542    0.0000 </r>
       <r>   51.2466    0.0000 </r>
      </set>
      <set comment="kpoint 19">
       <r>    0.3979    1.0000 </r>
       <r>    1.4949    1.0000 </r>
       <r>    2.1418    1.0000 </r>
       <r>    2.8421    1.0000 </r>
       <r>    3.2042    1.0000 </r>
       <r>    3.5448    1.0000 </r>
       <r>    3.7346    1.0000 </r>
       <r>    4.0479    1.0000 </r>
       <r>    4.4761    1.0000 </r>
       <r>    4.9753    1.0025 </r>
       <r>    5.1045    1.0196 </r>
       <r>    6.9974   -0.0000 </r>
       <r>   18.7325    0.0000 </r>
       <r>   19.1974    0.0000 </r>
       <r>   21.5503    0.0000 </r>
       <r>   22.4160    0.0000 </r>
       <r>   24.1754    0.0000 </r>
       <r>   25.7928    0.0000 </r>
       <r>   26.5834    0.0000 </r>
       <r>   28.1063    0.0000 </r>
       <r>   33.8125    0.0000 </r>
       <r>   35.9448    0.0000 </r>
       <r>   37.5174    0.0000 </r>
       <r>   37.9456    0.0000 </r>
       <r>   40.3800    0.0000 </r>
       <r>   41.1627    0.0000 </r>
       <r>   42.7123    0.0000 </r>
       <r>   44.6139    0.0000 </r>
       <r>   46.9302    0.0000 </r>
       <r>   47.9052    0.0000 </r>
       <r>   49.0542    0.0000 </r>
       <r>   51.2466    0.0000 </r>
      </set>
      <set comment="kpoint 20">
       <r>    0.7473    1.0000 </r>
       <r>    1.3778    1.0000 </r>
       <r>    2.5642    1.0000 </r>
       <r>    2.5654    1.0000 </r>
       <r>    2.9462    1.0000 </r>
       <r>    3.1197    1.0000 </r>
       <r>    4.1897    1.0000 </r>
       <r>    4.2450    1.0000 </r>
       <r>    4.7962    1.0000 </r>
       <r>    5.3676    0.7839 </r>
       <r>    5.4947    0.2764 </r>
       <r>    7.7004   -0.0000 </r>
       <r>   14.7246    0.0000 </r>
       <r>   17.5423    0.0000 </r>
       <r>   19.8332    0.0000 </r>
       <r>   22.5998    0.0000 </r>
       <r>   25.0409    0.0000 </r>
       <r>   26.5533    0.0000 </r>
       <r>   29.9435    0.0000 </r>
       <r>   30.3356    0.0000 </r>
       <r>   32.6403    0.0000 </r>
       <r>   33.7860    0.0000 </r>
       <r>   35.7331    0.0000 </r>
       <r>   37.2045    0.0000 </r>
       <r>   40.0768    0.0000 </r>
       <r>   43.4299    0.0000 </r>
       <r>   45.0706    0.0000 </r>
       <r>   47.3536    0.0000 </r>
       <r>   47.6783    0.0000 </r>
       <r>   51.1650    0.0000 </r>
       <r>   51.7747    0.0000 </r>
       <r>   52.4644    0.0000 </r>
      </set>
      <set comment="kpoint 21">
       <r>    0.8372    1.0000 </r>
       <r>    1.0011    1.0000 </r>
       <r>    2.2661    1.0000 </r>
       <r>    2.3582    1.0000 </r>
       <r>    3.7590    1.0000 </r>
       <r>    4.3438    1.0000 </r>
       <r>    4.3811    1.0000 </r>
       <r>    4.5863    1.0000 </r>
       <r>    4.5878    1.0000 </r>
       <r>    5.4390    0.5027 </r>
       <r>    6.2971   -0.0000 </r>
       <r>    7.6047   -0.0000 </r>
       <r>   12.6759    0.0000 </r>
       <r>   14.1726    0.0000 </r>
       <r>   21.4132    0.0000 </r>
       <r>   23.0850    0.0000 </r>
       <r>   24.7209    0.0000 </r>
       <r>   25.0225    0.0000 </r>
       <r>   29.7144    0.0000 </r>
       <r>   29.8426    0.0000 </r>
       <r>   33.4288    0.0000 </r>
       <r>   34.6204    0.0000 </r>
       <r>   36.3340    0.0000 </r>
       <r>   39.7459    0.0000 </r>
       <r>   41.1645    0.0000 </r>
       <r>   42.5440    0.0000 </r>
       <r>   47.6934    0.0000 </r>
       <r>   47.8872    0.0000 </r>
       <r>   50.4423    0.0000 </r>
       <r>   50.5548    0.0000 </r>
       <r>   53.0943    0.0000 </r>
       <r>   54.0204    0.0000 </r>
      </set>
      <set comment="kpoint 22">
       <r>    0.8372    1.0000 </r>
       <r>    1.0011    1.0000 </r>
       <r>    2.2661    1.0000 </r>
       <r>    2.3582    1.0000 </r>
       <r>    3.7590    1.0000 </r>
       <r>    4.3438    1.0000 </r>
       <r>    4.3811    1.0000 </r>
       <r>    4.5863    1.0000 </r>
       <r>    4.5878    1.0000 </r>
       <r>    5.4390    0.5027 </r>
       <r>    6.2971   -0.0000 </r>
       <r>    7.6047   -0.0000 </r>
       <r>   12.6759    0.0000 </r>
       <r>   14.1726    0.0000 </r>
       <r>   21.4132    0.0000 </r>
       <r>   23.0850    0.0000 </r>
       <r>   24.7209    0.0000 </r>
       <r>   25.0225    0.0000 </r>
       <r>   29.7144    0.0000 </r>
       <r>   29.8426    0.0000 </r>
       <r>   33.4288    0.0000 </r>
       <r>   34.6204    0.0000 </r>
       <r>   36.3340    0.0000 </r>
       <r>   39.7459    0.0000 </r>
       <r>   41.1645    0.0000 </r>
       <r>   42.5440    0.0000 </r>
       <r>   47.6934    0.0000 </r>
       <r>   47.8872    0.0000 </r>
       <r>   50.4423    0.0000 </r>
       <r>   50.5548    0.0000 </r>
       <r>   53.0943    0.0000 </r>
       <r>   54.0204    0.0000 </r>
      </set>
      <set comment="kpoint 23">
       <r>    0.7473    1.0000 </r>
       <r>    1.3778    1.0000 </r>
       <r>    2.5642    1.0000 </r>
       <r>    2.5654    1.0000 </r>
       <r>    2.9462    1.0000 </r>
       <r>    3.1197    1.0000 </r>
       <r>    4.1897    1.0000 </r>
       <r>    4.2450    1.0000 </r>
       <r>    4.7962    1.0000 </r>
       <r>    5.3676    0.7839 </r>
       <r>    5.4947    0.2764 </r>
       <r>    7.7004   -0.0000 </r>
       <r>   14.7246    0.0000 </r>
       <r>   17.5423    0.0000 </r>
       <r>   19.8332    0.0000 </r>
       <r>   22.5998    0.0000 </r>
       <r>   25.0409    0.0000 </r>
       <r>   26.5533    0.0000 </r>
       <r>   29.9435    0.0000 </r>
       <r>   30.3356    0.0000 </r>
       <r>   32.6403    0.0000 </r>
       <r>   33.7860    0.0000 </r>
       <r>   35.7331    0.0000 </r>
       <r>   37.2045    0.0000 </r>
       <r>   40.0768    0.0000 </r>
       <r>   43.4299    0.0000 </r>
       <r>   45.0706    0.0000 </r>
       <r>   47.3536    0.0000 </r>
       <r>   47.6783    0.0000 </r>
       <r>   51.1650    0.0000 </r>
       <r>   51.7747    0.0000 </r>
       <r>   52.4644    0.0000 </r>
      </set>
      <set comment="kpoint 24">
       <r>    0.3979    1.0000 </r>
       <r>    1.4949    1.0000 </r>
       <r>    2.1418    1.0000 </r>
       <r>    2.8421    1.0000 </r>
       <r>    3.2042    1.0000 </r>
       <r>    3.5448    1.0000 </r>
       <r>    3.7346    1.0000 </r>
       <r>    4.0479    1.0000 </r>
       <r>    4.4761    1.0000 </r>
       <r>    4.9753    1.0025 </r>
       <r>    5.1045    1.0196 </r>
       <r>    6.9974   -0.0000 </r>
       <r>   18.7325    0.0000 </r>
       <r>   19.1974    0.0000 </r>
       <r>   21.5503    0.0000 </r>
       <r>   22.4160    0.0000 </r>
       <r>   24.1754    0.0000 </r>
       <r>   25.7928    0.0000 </r>
       <r>   26.5834    0.0000 </r>
       <r>   28.1063    0.0000 </r>
       <r>   33.8125    0.0000 </r>
       <r>   35.9448    0.0000 </r>
       <r>   37.5174    0.0000 </r>
       <r>   37.9456    0.0000 </r>
       <r>   40.3800    0.0000 </r>
       <r>   41.1627    0.0000 </r>
       <r>   42.7123    0.0000 </r>
       <r>   44.6139    0.0000 </r>
       <r>   46.9302    0.0000 </r>
       <r>   47.9052    0.0000 </r>
       <r>   49.0542    0.0000 </r>
       <r>   51.2466    0.0000 </r>
      </set>
      <set comment="kpoint 25">
       <r>   -1.2555    1.0000 </r>
       <r>    1.4061    1.0000 </r>
       <r>    1.4378    1.0000 </r>
       <r>    3.0461    1.0000 </r>
       <r>    3.0987    1.0000 </r>
       <r>    3.9367    1.0000 </r>
       <r>    4.0431    1.0000 </r>
       <r>    4.1698    1.0000 </r>
       <r>    4.5824    1.0000 </r>
       <r>    4.7667    1.0000 </r>
       <r>    5.3882    0.7096 </r>
       <r>   10.5777   -0.0000 </r>
       <r>   16.2181    0.0000 </r>
       <r>   16.6181    0.0000 </r>
       <r>   22.7798    0.0000 </r>
       <r>   24.3616    0.0000 </r>
       <r>   24.7057    0.0000 </r>
       <r>   26.0495    0.0000 </r>
       <r>   29.5408    0.0000 </r>
       <r>   30.7566    0.0000 </r>
       <r>   30.8911    0.0000 </r>
       <r>   32.7292    0.0000 </r>
       <r>   35.2811    0.0000 </r>
       <r>   38.9393    0.0000 </r>
       <r>   39.5726    0.0000 </r>
       <r>   40.9619    0.0000 </r>
       <r>   43.7298    0.0000 </r>
       <r>   44.7039    0.0000 </r>
       <r>   45.4957    0.0000 </r>
       <r>   45.5425    0.0000 </r>
       <r>   46.9329    0.0000 </r>
       <r>   51.6403    0.0000 </r>
      </set>
      <set comment="kpoint 26">
       <r>   -0.3754    1.0000 </r>
       <r>    1.5245    1.0000 </r>
       <r>    1.9666    1.0000 </r>
       <r>    2.6862    1.0000 </r>
       <r>    2.9872    1.0000 </r>
       <r>    3.3585    1.0000 </r>
       <r>    4.2801    1.0000 </r>
       <r>    4.4192    1.0000 </r>
       <r>    4.4856    1.0000 </r>
       <r>    4.6083    1.0000 </r>
       <r>    5.5471    0.1101 </r>
       <r>   10.8037   -0.0000 </r>
       <r>   13.2141    0.0000 </r>
       <r>   17.6804    0.0000 </r>
       <r>   21.0973    0.0000 </r>
       <r>   23.9279    0.0000 </r>
       <r>   25.2326    0.0000 </r>
       <r>   27.6380    0.0000 </r>
       <r>   28.1841    0.0000 </r>
       <r>   30.4514    0.0000 </r>
       <r>   32.0968    0.0000 </r>
       <r>   34.1040    0.0000 </r>
       <r>   36.2634    0.0000 </r>
       <r>   36.3548    0.0000 </r>
       <r>   39.1709    0.0000 </r>
       <r>   41.7937    0.0000 </r>
       <r>   42.1118    0.0000 </r>
       <r>   45.7865    0.0000 </r>
       <r>   48.1823    0.0000 </r>
       <r>   50.0078    0.0000 </r>
       <r>   50.0581    0.0000 </r>
       <r>   51.9962    0.0000 </r>
      </set>
      <set comment="kpoint 27">
       <r>    0.7473    1.0000 </r>
       <r>    1.3778    1.0000 </r>
       <r>    2.5642    1.0000 </r>
       <r>    2.5654    1.0000 </r>
       <r>    2.9462    1.0000 </r>
       <r>    3.1197    1.0000 </r>
       <r>    4.1897    1.0000 </r>
       <r>    4.2450    1.0000 </r>
       <r>    4.7962    1.0000 </r>
       <r>    5.3676    0.7839 </r>
       <r>    5.4947    0.2764 </r>
       <r>    7.7004   -0.0000 </r>
       <r>   14.7246    0.0000 </r>
       <r>   17.5423    0.0000 </r>
       <r>   19.8332    0.0000 </r>
       <r>   22.5998    0.0000 </r>
       <r>   25.0409    0.0000 </r>
       <r>   26.5533    0.0000 </r>
       <r>   29.9435    0.0000 </r>
       <r>   30.3356    0.0000 </r>
       <r>   32.6403    0.0000 </r>
       <r>   33.7860    0.0000 </r>
       <r>   35.7331    0.0000 </r>
       <r>   37.2045    0.0000 </r>
       <r>   40.0768    0.0000 </r>
       <r>   43.4299    0.0000 </r>
       <r>   45.0706    0.0000 </r>
       <r>   47.3536    0.0000 </r>
       <r>   47.6783    0.0000 </r>
       <r>   51.1650    0.0000 </r>
       <r>   51.7747    0.0000 </r>
       <r>   52.4644    0.0000 </r>
      </set>
      <set comment="kpoint 28">
       <r>    0.7473    1.0000 </r>
       <r>    1.3778    1.0000 </r>
       <r>    2.5642    1.0000 </r>
       <r>    2.5654    1.0000 </r>
       <r>    2.9462    1.0000 </r>
       <r>    3.1197    1.0000 </r>
       <r>    4.1897    1.0000 </r>
       <r>    4.2450    1.0000 </r>
       <r>    4.7962    1.0000 </r>
       <r>    5.3676    0.7839 </r>
       <r>    5.4947    0.2764 </r>
       <r>    7.7004   -0.0000 </r>
       <r>   14.7246    0.0000 </r>
       <r>   17.5423    0.0000 </r>
       <r>   19.8332    0.0000 </r>
       <r>   22.5998    0.0000 </r>
       <r>   25.0409    0.0000 </r>
       <r>   26.5533    0.0000 </r>
       <r>   29.9435    0.0000 </r>
       <r>   30.3356    0.0000 </r>
       <r>   32.6403    0.0000 </r>
       <r>   33.7860    0.0000 </r>
       <r>   35.7331    0.0000 </r>
       <r>   37.2045    0.0000 </r>
       <r>   40.0768    0.0000 </r>
       <r>   43.4299    0.0000 </r>
       <r>   45.0706    0.0000 </r>
       <r>   47.3536    0.0000 </r>
       <r>   47.6783    0.0000 </r>
       <r>   51.1650    0.0000 </r>
       <r>   51.7747    0.0000 </r>
       <r>   52.4644    0.0000 </r>
      </set>
      <set comment="kpoint 29">
       <r>   -0.3754    1.0000 </r>
       <r>    1.5245    1.0000 </r>
       <r>    1.9666    1.0000 </r>
       <r>    2.6862    1.0000 </r>
       <r>    2.9872    1.0000 </r>
       <r>    3.3585    1.0000 </r>
       <r>    4.2801    1.0000 </r>
       <r>    4.4192    1.0000 </r>
       <r>    4.4856    1.0000 </r>
       <r>    4.6083    1.0000 </r>
       <r>    5.5471    0.1101 </r>
       <r>   10.8037   -0.0000 </r>
       <r>   13.2141    0.0000 </r>
       <r>   17.6804    0.0000 </r>
       <r>   21.0973    0.0000 </r>
       <r>   23.9279    0.0000 </r>
       <r>   25.2326    0.0000 </r>
       <r>   27.6380    0.0000 </r>
       <r>   28.1841    0.0000 </r>
       <r>   30.4514    0.0000 </r>
       <r>   32.0968    0.0000 </r>
       <r>   34.1040    0.0000 </r>
       <r>   36.2634    0.0000 </r>
       <r>   36.3548    0.0000 </r>
       <r>   39.1709    0.0000 </r>
       <r>   41.7937    0.0000 </r>
       <r>   42.1118    0.0000 </r>
       <r>   45.7865    0.0000 </r>
       <r>   48.1823    0.0000 </r>
       <r>   50.0078    0.0000 </r>
       <r>   50.0581    0.0000 </r>
       <r>   51.9962    0.0000 </r>
      </set>
      <set comment="kpoint 30">
       <r>   -1.2555    1.0000 </r>
       <r>    1.4061    1.0000 </r>
       <r>    1.4378    1.0000 </r>
       <r>    3.0461    1.0000 </r>
       <r>    3.0987    1.0000 </r>
       <r>    3.9367    1.0000 </r>
       <r>    4.0431    1.0000 </r>
       <r>    4.1698    1.0000 </r>
       <r>    4.5824    1.0000 </r>
       <r>    4.7667    1.0000 </r>
       <r>    5.3882    0.7096 </r>
       <r>   10.5777   -0.0000 </r>
       <r>   16.2181    0.0000 </r>
       <r>   16.6181    0.0000 </r>
       <r>   22.7798    0.0000 </r>
       <r>   24.3616    0.0000 </r>
       <r>   24.7057    0.0000 </r>
       <r>   26.0495    0.0000 </r>
       <r>   29.5408    0.0000 </r>
       <r>   30.7566    0.0000 </r>
       <r>   30.8911    0.0000 </r>
       <r>   32.7292    0.0000 </r>
       <r>   35.2811    0.0000 </r>
       <r>   38.9393    0.0000 </r>
       <r>   39.5726    0.0000 </r>
       <r>   40.9619    0.0000 </r>
       <r>   43.7298    0.0000 </r>
       <r>   44.7039    0.0000 </r>
       <r>   45.4957    0.0000 </r>
       <r>   45.5425    0.0000 </r>
       <r>   46.9329    0.0000 </r>
       <r>   51.6403    0.0000 </r>
      </set>
      <set comment="kpoint 31">
       <r>   -2.2964    1.0000 </r>
       <r>    1.0246    1.0000 </r>
       <r>    1.0246    1.0000 </r>
       <r>    3.1604    1.0000 </r>
       <r>    3.1604    1.0000 </r>
       <r>    3.5006    1.0000 </r>
       <r>    4.3842    1.0000 </r>
       <r>    4.3842    1.0000 </r>
       <r>    4.9700    1.0022 </r>
       <r>    5.4490    0.4602 </r>
       <r>    5.4490    0.4602 </r>
       <r>   14.5621    0.0000 </r>
       <r>   14.5621    0.0000 </r>
       <r>   15.1634    0.0000 </r>
       <r>   22.1848    0.0000 </r>
       <r>   22.1848    0.0000 </r>
       <r>   26.9135    0.0000 </r>
       <r>   28.3421    0.0000 </r>
       <r>   28.3421    0.0000 </r>
       <r>   30.6732    0.0000 </r>
       <r>   32.7400    0.0000 </r>
       <r>   35.2981    0.0000 </r>
       <r>   35.2981    0.0000 </r>
       <r>   36.7751    0.0000 </r>
       <r>   36.7751    0.0000 </r>
       <r>   41.0795    0.0000 </r>
       <r>   41.4062    0.0000 </r>
       <r>   41.4062    0.0000 </r>
       <r>   42.7013    0.0000 </r>
       <r>   48.3397    0.0000 </r>
       <r>   50.3253    0.0000 </r>
       <r>   50.3253    0.0000 </r>
      </set>
      <set comment="kpoint 32">
       <r>   -1.2555    1.0000 </r>
       <r>    1.4061    1.0000 </r>
       <r>    1.4378    1.0000 </r>
       <r>    3.0461    1.0000 </r>
       <r>    3.0987    1.0000 </r>
       <r>    3.9367    1.0000 </r>
       <r>    4.0431    1.0000 </r>
       <r>    4.1698    1.0000 </r>
       <r>    4.5824    1.0000 </r>
       <r>    4.7667    1.0000 </r>
       <r>    5.3882    0.7096 </r>
       <r>   10.5777   -0.0000 </r>
       <r>   16.2181    0.0000 </r>
       <r>   16.6181    0.0000 </r>
       <r>   22.7798    0.0000 </r>
       <r>   24.3616    0.0000 </r>
       <r>   24.7057    0.0000 </r>
       <r>   26.0495    0.0000 </r>
       <r>   29.5408    0.0000 </r>
       <r>   30.7566    0.0000 </r>
       <r>   30.8911    0.0000 </r>
       <r>   32.7292    0.0000 </r>
       <r>   35.2811    0.0000 </r>
       <r>   38.9393    0.0000 </r>
       <r>   39.5726    0.0000 </r>
       <r>   40.9619    0.0000 </r>
       <r>   43.7298    0.0000 </r>
       <r>   44.7039    0.0000 </r>
       <r>   45.4957    0.0000 </r>
       <r>   45.5425    0.0000 </r>
       <r>   46.9329    0.0000 </r>
       <r>   51.6403    0.0000 </r>
      </set>
      <set comment="kpoint 33">
       <r>    0.3979    1.0000 </r>
       <r>    1.4949    1.0000 </r>
       <r>    2.1418    1.0000 </r>
       <r>    2.8421    1.0000 </r>
       <r>    3.2042    1.0000 </r>
       <r>    3.5448    1.0000 </r>
       <r>    3.7346    1.0000 </r>
       <r>    4.0479    1.0000 </r>
       <r>    4.4761    1.0000 </r>
       <r>    4.9753    1.0025 </r>
       <r>    5.1045    1.0196 </r>
       <r>    6.9974   -0.0000 </r>
       <r>   18.7325    0.0000 </r>
       <r>   19.1974    0.0000 </r>
       <r>   21.5503    0.0000 </r>
       <r>   22.4160    0.0000 </r>
       <r>   24.1754    0.0000 </r>
       <r>   25.7928    0.0000 </r>
       <r>   26.5834    0.0000 </r>
       <r>   28.1063    0.0000 </r>
       <r>   33.8125    0.0000 </r>
       <r>   35.9448    0.0000 </r>
       <r>   37.5174    0.0000 </r>
       <r>   37.9456    0.0000 </r>
       <r>   40.3800    0.0000 </r>
       <r>   41.1627    0.0000 </r>
       <r>   42.7123    0.0000 </r>
       <r>   44.6139    0.0000 </r>
       <r>   46.9302    0.0000 </r>
       <r>   47.9052    0.0000 </r>
       <r>   49.0542    0.0000 </r>
       <r>   51.2466    0.0000 </r>
      </set>
      <set comment="kpoint 34">
       <r>    0.3979    1.0000 </r>
       <r>    1.4949    1.0000 </r>
       <r>    2.1418    1.0000 </r>
       <r>    2.8421    1.0000 </r>
       <r>    3.2042    1.0000 </r>
       <r>    3.5448    1.0000 </r>
       <r>    3.7346    1.0000 </r>
       <r>    4.0479    1.0000 </r>
       <r>    4.4761    1.0000 </r>
       <r>    4.9753    1.0025 </r>
       <r>    5.1045    1.0196 </r>
       <r>    6.9974   -0.0000 </r>
       <r>   18.7325    0.0000 </r>
       <r>   19.1974    0.0000 </r>
       <r>   21.5503    0.0000 </r>
       <r>   22.4160    0.0000 </r>
       <r>   24.1754    0.0000 </r>
       <r>   25.7928    0.0000 </r>
       <r>   26.5834    0.0000 </r>
       <r>   28.1063    0.0000 </r>
       <r>   33.8125    0.0000 </r>
       <r>   35.9448    0.0000 </r>
       <r>   37.5174    0.0000 </r>
       <r>   37.9456    0.0000 </r>
       <r>   40.3800    0.0000 </r>
       <r>   41.1627    0.0000 </r>
       <r>   42.7123    0.0000 </r>
       <r>   44.6139    0.0000 </r>
       <r>   46.9302    0.0000 </r>
       <r>   47.9052    0.0000 </r>
       <r>   49.0542    0.0000 </r>
       <r>   51.2466    0.0000 </r>
      </set>
      <set comment="kpoint 35">
       <r>   -1.2555    1.0000 </r>
       <r>    1.4061    1.0000 </r>
       <r>    1.4378    1.0000 </r>
       <r>    3.0461    1.0000 </r>
       <r>    3.0987    1.0000 </r>
       <r>    3.9367    1.0000 </r>
       <r>    4.0431    1.0000 </r>
       <r>    4.1698    1.0000 </r>
       <r>    4.5824    1.0000 </r>
       <r>    4.7667    1.0000 </r>
       <r>    5.3882    0.7096 </r>
       <r>   10.5777   -0.0000 </r>
       <r>   16.2181    0.0000 </r>
       <r>   16.6181    0.0000 </r>
       <r>   22.7798    0.0000 </r>
       <r>   24.3616    0.0000 </r>
       <r>   24.7057    0.0000 </r>
       <r>   26.0495    0.0000 </r>
       <r>   29.5408    0.0000 </r>
       <r>   30.7566    0.0000 </r>
       <r>   30.8911    0.0000 </r>
       <r>   32.7292    0.0000 </r>
       <r>   35.2811    0.0000 </r>
       <r>   38.9393    0.0000 </r>
       <r>   39.5726    0.0000 </r>
       <r>   40.9619    0.0000 </r>
       <r>   43.7298    0.0000 </r>
       <r>   44.7039    0.0000 </r>
       <r>   45.4957    0.0000 </r>
       <r>   45.5425    0.0000 </r>
       <r>   46.9329    0.0000 </r>
       <r>   51.6403    0.0000 </r>
      </set>
      <set comment="kpoint 36">
       <r>   -2.2964    1.0000 </r>
       <r>    1.0246    1.0000 </r>
       <r>    1.0246    1.0000 </r>
       <r>    3.1604    1.0000 </r>
       <r>    3.1604    1.0000 </r>
       <r>    3.5006    1.0000 </r>
       <r>    4.3842    1.0000 </r>
       <r>    4.3842    1.0000 </r>
       <r>    4.9700    1.0022 </r>
       <r>    5.4490    0.4602 </r>
       <r>    5.4490    0.4602 </r>
       <r>   14.5621    0.0000 </r>
       <r>   14.5621    0.0000 </r>
       <r>   15.1634    0.0000 </r>
       <r>   22.1848    0.0000 </r>
       <r>   22.1848    0.0000 </r>
       <r>   26.9135    0.0000 </r>
       <r>   28.3421    0.0000 </r>
       <r>   28.3421    0.0000 </r>
       <r>   30.6732    0.0000 </r>
       <r>   32.7400    0.0000 </r>
       <r>   35.2981    0.0000 </r>
       <r>   35.2981    0.0000 </r>
       <r>   36.7751    0.0000 </r>
       <r>   36.7751    0.0000 </r>
       <r>   41.0795    0.0000 </r>
       <r>   41.4062    0.0000 </r>
       <r>   41.4062    0.0000 </r>
       <r>   42.7013    0.0000 </r>
       <r>   48.3397    0.0000 </r>
       <r>   50.3253    0.0000 </r>
       <r>   50.3253    0.0000 </r>
      </set>
      <set comment="kpoint 37">
       <r>   -1.2555    1.0000 </r>
       <r>    1.4061    1.0000 </r>
       <r>    1.4378    1.0000 </r>
       <r>    3.0461    1.0000 </r>
       <r>    3.0987    1.0000 </r>
       <r>    3.9367    1.0000 </r>
       <r>    4.0431    1.0000 </r>
       <r>    4.1698    1.0000 </r>
       <r>    4.5824    1.0000 </r>
       <r>    4.7667    1.0000 </r>
       <r>    5.3882    0.7096 </r>
       <r>   10.5777   -0.0000 </r>
       <r>   16.2181    0.0000 </r>
       <r>   16.6181    0.0000 </r>
       <r>   22.7798    0.0000 </r>
       <r>   24.3616    0.0000 </r>
       <r>   24.7057    0.0000 </r>
       <r>   26.0495    0.0000 </r>
       <r>   29.5408    0.0000 </r>
       <r>   30.7566    0.0000 </r>
       <r>   30.8911    0.0000 </r>
       <r>   32.7292    0.0000 </r>
       <r>   35.2811    0.0000 </r>
       <r>   38.9393    0.0000 </r>
       <r>   39.5726    0.0000 </r>
       <r>   40.9619    0.0000 </r>
       <r>   43.7298    0.0000 </r>
       <r>   44.7039    0.0000 </r>
       <r>   45.4957    0.0000 </r>
       <r>   45.5425    0.0000 </r>
       <r>   46.9329    0.0000 </r>
       <r>   51.6403    0.0000 </r>
      </set>
      <set comment="kpoint 38">
       <r>   -0.3754    1.0000 </r>
       <r>    1.5245    1.0000 </r>
       <r>    1.9666    1.0000 </r>
       <r>    2.6862    1.0000 </r>
       <r>    2.9872    1.0000 </r>
       <r>    3.3585    1.0000 </r>
       <r>    4.2801    1.0000 </r>
       <r>    4.4192    1.0000 </r>
       <r>    4.4856    1.0000 </r>
       <r>    4.6083    1.0000 </r>
       <r>    5.5471    0.1101 </r>
       <r>   10.8037   -0.0000 </r>
       <r>   13.2141    0.0000 </r>
       <r>   17.6804    0.0000 </r>
       <r>   21.0973    0.0000 </r>
       <r>   23.9279    0.0000 </r>
       <r>   25.2326    0.0000 </r>
       <r>   27.6380    0.0000 </r>
       <r>   28.1841    0.0000 </r>
       <r>   30.4514    0.0000 </r>
       <r>   32.0968    0.0000 </r>
       <r>   34.1040    0.0000 </r>
       <r>   36.2634    0.0000 </r>
       <r>   36.3548    0.0000 </r>
       <r>   39.1709    0.0000 </r>
       <r>   41.7937    0.0000 </r>
       <r>   42.1118    0.0000 </r>
       <r>   45.7865    0.0000 </r>
       <r>   48.1823    0.0000 </r>
       <r>   50.0078    0.0000 </r>
       <r>   50.0581    0.0000 </r>
       <r>   51.9962    0.0000 </r>
      </set>
      <set comment="kpoint 39">
       <r>    0.7473    1.0000 </r>
       <r>    1.3778    1.0000 </r>
       <r>    2.5642    1.0000 </r>
       <r>    2.5654    1.0000 </r>
       <r>    2.9462    1.0000 </r>
       <r>    3.1197    1.0000 </r>
       <r>    4.1897    1.0000 </r>
       <r>    4.2450    1.0000 </r>
       <r>    4.7962    1.0000 </r>
       <r>    5.3676    0.7839 </r>
       <r>    5.4947    0.2764 </r>
       <r>    7.7004   -0.0000 </r>
       <r>   14.7246    0.0000 </r>
       <r>   17.5423    0.0000 </r>
       <r>   19.8332    0.0000 </r>
       <r>   22.5998    0.0000 </r>
       <r>   25.0409    0.0000 </r>
       <r>   26.5533    0.0000 </r>
       <r>   29.9435    0.0000 </r>
       <r>   30.3356    0.0000 </r>
       <r>   32.6403    0.0000 </r>
       <r>   33.7860    0.0000 </r>
       <r>   35.7331    0.0000 </r>
       <r>   37.2045    0.0000 </r>
       <r>   40.0768    0.0000 </r>
       <r>   43.4299    0.0000 </r>
       <r>   45.0706    0.0000 </r>
       <r>   47.3536    0.0000 </r>
       <r>   47.6783    0.0000 </r>
       <r>   51.1650    0.0000 </r>
       <r>   51.7747    0.0000 </r>
       <r>   52.4644    0.0000 </r>
      </set>
      <set comment="kpoint 40">
       <r>    0.7473    1.0000 </r>
       <r>    1.3778    1.0000 </r>
       <r>    2.5642    1.0000 </r>
       <r>    2.5654    1.0000 </r>
       <r>    2.9462    1.0000 </r>
       <r>    3.1197    1.0000 </r>
       <r>    4.1897    1.0000 </r>
       <r>    4.2450    1.0000 </r>
       <r>    4.7962    1.0000 </r>
       <r>    5.3676    0.7839 </r>
       <r>    5.4947    0.2764 </r>
       <r>    7.7004   -0.0000 </r>
       <r>   14.7246    0.0000 </r>
       <r>   17.5423    0.0000 </r>
       <r>   19.8332    0.0000 </r>
       <r>   22.5998    0.0000 </r>
       <r>   25.0409    0.0000 </r>
       <r>   26.5533    0.0000 </r>
       <r>   29.9435    0.0000 </r>
       <r>   30.3356    0.0000 </r>
       <r>   32.6403    0.0000 </r>
       <r>   33.7860    0.0000 </r>
       <r>   35.7331    0.0000 </r>
       <r>   37.2045    0.0000 </r>
       <r>   40.0768    0.0000 </r>
       <r>   43.4299    0.0000 </r>
       <r>   45.0706    0.0000 </r>
       <r>   47.3536    0.0000 </r>
       <r>   47.6783    0.0000 </r>
       <r>   51.1650    0.0000 </r>
       <r>   51.7747    0.0000 </r>
       <r>   52.4644    0.0000 </r>
      </set>
      <set comment="kpoint 41">
       <r>   -0.3754    1.0000 </r>
       <r>    1.5245    1.0000 </r>
       <r>    1.9666    1.0000 </r>
       <r>    2.6862    1.0000 </r>
       <r>    2.9872    1.0000 </r>
       <r>    3.3585    1.0000 </r>
       <r>    4.2801    1.0000 </r>
       <r>    4.4192    1.0000 </r>
       <r>    4.4856    1.0000 </r>
       <r>    4.6083    1.0000 </r>
       <r>    5.5471    0.1101 </r>
       <r>   10.8037   -0.0000 </r>
       <r>   13.2141    0.0000 </r>
       <r>   17.6804    0.0000 </r>
       <r>   21.0973    0.0000 </r>
       <r>   23.9279    0.0000 </r>
[...]
       <r>    38.9708     0.5268    23.2936 </r>
       <r>    39.1789     0.4922    23.3960 </r>
       <r>    39.3869     0.2344    23.4447 </r>
       <r>    39.5949     0.3101    23.5092 </r>
       <r>    39.8030     0.6863    23.6520 </r>
       <r>    40.0110     1.1487    23.8910 </r>
       <r>    40.2191     1.4226    24.1869 </r>
       <r>    40.4271     1.0049    24.3960 </r>
       <r>    40.6351     0.2531    24.4487 </r>
       <r>    40.8432    -0.0150    24.4455 </r>
       <r>    41.0512     0.9174    24.6364 </r>
       <r>    41.2593     1.2832    24.9033 </r>
       <r>    41.4673     0.3617    24.9786 </r>
       <r>    41.6753     0.3908    25.0599 </r>
       <r>    41.8834     1.2923    25.3287 </r>
       <r>    42.0914     0.6415    25.4622 </r>
       <r>    42.2994     0.2600    25.5163 </r>
       <r>    42.5075     0.1827    25.5543 </r>
       <r>    42.7155     0.7378    25.7078 </r>
       <r>    42.9236     0.3622    25.7832 </r>
       <r>    43.1316    -0.0728    25.7680 </r>
       <r>    43.3396     0.3382    25.8384 </r>
       <r>    43.5477     1.3371    26.1166 </r>
       <r>    43.7557     0.4904    26.2186 </r>
       <r>    43.9638     0.4773    26.3179 </r>
       <r>    44.1718     0.4416    26.4098 </r>
       <r>    44.3798     0.0878    26.4280 </r>
       <r>    44.5879     0.4510    26.5218 </r>
       <r>    44.7959     1.2268    26.7771 </r>
       <r>    45.0039     0.7945    26.9424 </r>
       <r>    45.2120     0.7475    27.0979 </r>
       <r>    45.4200     0.2169    27.1430 </r>
       <r>    45.6281     1.1304    27.3782 </r>
       <r>    45.8361     0.7382    27.5317 </r>
       <r>    46.0441     0.1334    27.5595 </r>
       <r>    46.2522    -0.0346    27.5523 </r>
       <r>    46.4602     0.2204    27.5981 </r>
       <r>    46.6682     0.4142    27.6843 </r>
       <r>    46.8763     0.3794    27.7632 </r>
       <r>    47.0843     0.9924    27.9697 </r>
       <r>    47.2924     0.7588    28.1275 </r>
       <r>    47.5004     0.9031    28.3154 </r>
       <r>    47.7084     1.2645    28.5785 </r>
       <r>    47.9165     1.6751    28.9270 </r>
       <r>    48.1245     0.7700    29.0872 </r>
       <r>    48.3326     0.8132    29.2563 </r>
       <r>    48.5406     0.2561    29.3096 </r>
       <r>    48.7486     0.0932    29.3290 </r>
       <r>    48.9567     0.5555    29.4446 </r>
       <r>    49.1647     0.6820    29.5864 </r>
       <r>    49.3727     0.0444    29.5957 </r>
       <r>    49.5808    -0.0182    29.5919 </r>
       <r>    49.7888    -0.0385    29.5839 </r>
       <r>    49.9969     0.4089    29.6689 </r>
       <r>    50.2049     1.0723    29.8920 </r>
       <r>    50.4129     0.8556    30.0700 </r>
       <r>    50.6210     0.7873    30.2338 </r>
       <r>    50.8290     0.2666    30.2893 </r>
       <r>    51.0371     0.4133    30.3752 </r>
       <r>    51.2451     1.2452    30.6343 </r>
       <r>    51.4531     0.8665    30.8146 </r>
       <r>    51.6612     0.4141    30.9007 </r>
       <r>    51.8692     1.0799    31.1254 </r>
       <r>    52.0772     0.8887    31.3103 </r>
       <r>    52.2853     0.3132    31.3754 </r>
       <r>    52.4933     0.6416    31.5089 </r>
       <r>    52.7014     0.4352    31.5994 </r>
       <r>    52.9094    -0.0372    31.5917 </r>
       <r>    53.1174     0.3208    31.6584 </r>
       <r>    53.3255     0.2265    31.7055 </r>
       <r>    53.5335     0.1690    31.7407 </r>
       <r>    53.7415     0.3408    31.8116 </r>
       <r>    53.9496     0.4876    31.9130 </r>
       <r>    54.1576     0.4006    31.9964 </r>
       <r>    54.3657     0.0268    32.0020 </r>
       <r>    54.5737    -0.0092    32.0000 </r>
       <r>    54.7817    -0.0002    32.0000 </r>
       <r>    54.9898    -0.0000    32.0000 </r>
       <r>    55.1978    -0.0000    32.0000 </r>
       <r>    55.4059    -0.0000    32.0000 </r>
       <r>    55.6139     0.0000    32.0000 </r>
       <r>    55.8219     0.0000    32.0000 </r>
       <r>    56.0300     0.0000    32.0000 </r>
       <r>    56.2380     0.0000    32.0000 </r>
       <r>    56.4460     0.0000    32.0000 </r>
       <r>    56.6541     0.0000    32.0000 </r>
       <r>    56.8621     0.0000    32.0000 </r>
       <r>    57.0702     0.0000    32.0000 </r>
       <r>    57.2782     0.0000    32.0000 </r>
      </set>
      <set comment="spin 2">
       <r>    -5.1333     0.0000     0.0000 </r>
       <r>    -4.9252     0.0000     0.0000 </r>
       <r>    -4.7172     0.0000     0.0000 </r>
       <r>    -4.5092     0.0000     0.0000 </r>
       <r>    -4.3011     0.0000     0.0000 </r>
       <r>    -4.0931     0.0000     0.0000 </r>
       <r>    -3.8850    -0.0000    -0.0000 </r>
       <r>    -3.6770    -0.0000    -0.0000 </r>
       <r>    -3.4690    -0.0000    -0.0000 </r>
       <r>    -3.2609    -0.0000    -0.0000 </r>
       <r>    -3.0529    -0.0000    -0.0000 </r>
       <r>    -2.8448    -0.0000    -0.0000 </r>
       <r>    -2.6368    -0.0004    -0.0001 </r>
       <r>    -2.4288    -0.0058    -0.0013 </r>
       <r>    -2.2207     0.0609     0.0114 </r>
       <r>    -2.0127     0.1219     0.0367 </r>
       <r>    -1.8047     0.0038     0.0375 </r>
       <r>    -1.5966    -0.0031     0.0369 </r>
       <r>    -1.3886    -0.0163     0.0335 </r>
       <r>    -1.1805     0.1360     0.0618 </r>
       <r>    -0.9725     0.3918     0.1433 </r>
       <r>    -0.7645     0.0326     0.1501 </r>
       <r>    -0.5564    -0.0135     0.1473 </r>
       <r>    -0.3484    -0.0056     0.1461 </r>
       <r>    -0.1404     0.3197     0.2126 </r>
       <r>     0.0677     0.2425     0.2630 </r>
       <r>     0.2757    -0.0181     0.2593 </r>
       <r>     0.4838    -0.0250     0.2541 </r>
       <r>     0.6918     0.2709     0.3104 </r>
       <r>     0.8998     0.4630     0.4068 </r>
       <r>     1.1079    -0.0265     0.4012 </r>
       <r>     1.3159     0.4324     0.4912 </r>
       <r>     1.5240     0.6726     0.6311 </r>
       <r>     1.7320    -0.0201     0.6270 </r>
       <r>     1.9400     0.3027     0.6899 </r>
       <r>     2.1481     0.6575     0.8267 </r>
       <r>     2.3561     0.4827     0.9271 </r>
       <r>     2.5641     0.8484     1.1036 </r>
       <r>     2.7722     1.3426     1.3829 </r>
       <r>     2.9802     0.9305     1.5765 </r>
       <r>     3.1883     1.2501     1.8366 </r>
       <r>     3.3963     0.8955     2.0229 </r>
       <r>     3.6043     0.4084     2.1078 </r>
       <r>     3.8124     1.6206     2.4450 </r>
       <r>     4.0204     2.2685     2.9169 </r>
       <r>     4.2285     2.5165     3.4405 </r>
       <r>     4.4365     3.0427     4.0735 </r>
       <r>     4.6445     2.0990     4.5101 </r>
       <r>     4.8526     2.3152     4.9918 </r>
       <r>     5.0606     1.6267     5.3302 </r>
       <r>     5.2686     1.4431     5.6304 </r>
       <r>     5.4767     1.0949     5.8582 </r>
       <r>     5.6847     0.1271     5.8846 </r>
       <r>     5.8928     0.3819     5.9641 </r>
       <r>     6.1008     1.4150     6.2585 </r>
       <r>     6.3088     0.4106     6.3439 </r>
       <r>     6.5169     1.5633     6.6691 </r>
       <r>     6.7249     2.6436     7.2191 </r>
       <r>     6.9329     2.3281     7.7034 </r>
       <r>     7.1410     2.7171     8.2687 </r>
       <r>     7.3490     4.1366     9.1292 </r>
       <r>     7.5571     3.5380     9.8653 </r>
       <r>     7.7651     3.1280    10.5160 </r>
       <r>     7.9731     0.6450    10.6502 </r>
       <r>     8.1812     0.2594    10.7041 </r>
       <r>     8.3892     0.1767    10.7409 </r>
       <r>     8.5973     0.2994    10.8032 </r>
       <r>     8.8053     0.6672    10.9420 </r>
       <r>     9.0133     0.5383    11.0540 </r>
       <r>     9.2214     0.6142    11.1818 </r>
       <r>     9.4294     0.5653    11.2994 </r>
       <r>     9.6374     0.0540    11.3106 </r>
       <r>     9.8455     0.3995    11.3937 </r>
       <r>    10.0535     0.0757    11.4094 </r>
       <r>    10.2616    -0.0230    11.4047 </r>
       <r>    10.4696     0.2963    11.4663 </r>
       <r>    10.6776     0.2543    11.5192 </r>
       <r>    10.8857     0.0653    11.5328 </r>
       <r>    11.0937     0.4018    11.6164 </r>
       <r>    11.3018     0.0518    11.6271 </r>
       <r>    11.5098     0.2372    11.6765 </r>
       <r>    11.7178     0.6198    11.8054 </r>
       <r>    11.9259     0.3949    11.8876 </r>
       <r>    12.1339     0.0146    11.8906 </r>
       <r>    12.3419    -0.0082    11.8889 </r>
       <r>    12.5500    -0.0001    11.8889 </r>
       <r>    12.7580    -0.0000    11.8889 </r>
       <r>    12.9661    -0.0006    11.8888 </r>
       <r>    13.1741    -0.0125    11.8862 </r>
       <r>    13.3821     0.0872    11.9043 </r>
       <r>    13.5902     0.4041    11.9884 </r>
       <r>    13.7982     0.2175    12.0336 </r>
       <r>    14.0062     0.4962    12.1368 </r>
       <r>    14.2143     0.8097    12.3053 </r>
       <r>    14.4223     0.3280    12.3735 </r>
       <r>    14.6304    -0.0125    12.3709 </r>
       <r>    14.8384    -0.0140    12.3680 </r>
       <r>    15.0464     0.1859    12.4067 </r>
       <r>    15.2545     0.4199    12.4940 </r>
       <r>    15.4625     0.2744    12.5511 </r>
       <r>    15.6706     1.1319    12.7866 </r>
       <r>    15.8786     1.4899    13.0966 </r>
       <r>    16.0866     0.1016    13.1177 </r>
       <r>    16.2947    -0.0373    13.1099 </r>
       <r>    16.5027    -0.0092    13.1080 </r>
       <r>    16.7107     0.4237    13.1962 </r>
       <r>    16.9188     0.8323    13.3693 </r>
       <r>    17.1268     0.3780    13.4479 </r>
       <r>    17.3349     0.3369    13.5180 </r>
       <r>    17.5429    -0.0055    13.5169 </r>
       <r>    17.7509     0.0593    13.5292 </r>
       <r>    17.9590     0.5138    13.6361 </r>
       <r>    18.1670     0.1991    13.6775 </r>
       <r>    18.3751     1.0596    13.8980 </r>
       <r>    18.5831     0.7821    14.0607 </r>
       <r>    18.7911     0.2582    14.1144 </r>
       <r>    18.9992    -0.0271    14.1087 </r>
       <r>    19.2072     0.0639    14.1220 </r>
       <r>    19.4152     0.5917    14.2451 </r>
       <r>    19.6233     0.4403    14.3367 </r>
       <r>    19.8313     0.4633    14.4331 </r>
       <r>    20.0394     0.6197    14.5620 </r>
       <r>    20.2474     0.1665    14.5966 </r>
       <r>    20.4554     0.6855    14.7393 </r>
       <r>    20.6635     0.3993    14.8223 </r>
       <r>    20.8715    -0.0518    14.8116 </r>
       <r>    21.0795     0.2090    14.8550 </r>
       <r>    21.2876     0.3392    14.9256 </r>
       <r>    21.4956    -0.0159    14.9223 </r>
       <r>    21.7037     0.3806    15.0015 </r>
       <r>    21.9117     0.8688    15.1822 </r>
       <r>    22.1197     0.4685    15.2797 </r>
       <r>    22.3278     0.2723    15.3363 </r>
       <r>    22.5358    -0.0187    15.3324 </r>
       <r>    22.7439    -0.0460    15.3229 </r>
       <r>    22.9519     0.6873    15.4658 </r>
       <r>    23.1599     1.5679    15.7920 </r>
       <r>    23.3680     1.0128    16.0027 </r>
       <r>    23.5760     0.3643    16.0785 </r>
       <r>    23.7840    -0.0192    16.0745 </r>
       <r>    23.9921    -0.0208    16.0702 </r>
       <r>    24.2001     0.2636    16.1250 </r>
       <r>    24.4082     0.7273    16.2763 </r>
       <r>    24.6162     0.4933    16.3790 </r>
       <r>    24.8242     0.4492    16.4724 </r>
       <r>    25.0323     0.6606    16.6099 </r>
       <r>    25.2403     0.5759    16.7297 </r>
       <r>    25.4483     1.8525    17.1151 </r>
       <r>    25.6564     0.5850    17.2368 </r>
       <r>    25.8644    -0.0733    17.2215 </r>
       <r>    26.0725     0.0056    17.2227 </r>
       <r>    26.2805     0.4029    17.3065 </r>
       <r>    26.4885     0.6134    17.4341 </r>
       <r>    26.6966     0.4729    17.5325 </r>
       <r>    26.9046     0.8325    17.7057 </r>
       <r>    27.1127     0.9160    17.8962 </r>
       <r>    27.3207    -0.0229    17.8915 </r>
       <r>    27.5287    -0.0134    17.8887 </r>
       <r>    27.7368    -0.0040    17.8878 </r>
       <r>    27.9448     0.0871    17.9060 </r>
       <r>    28.1528     0.0658    17.9197 </r>
       <r>    28.3609     0.6664    18.0583 </r>
       <r>    28.5689     1.1475    18.2970 </r>
       <r>    28.7770     0.2058    18.3398 </r>
       <r>    28.9850    -0.0410    18.3313 </r>
       <r>    29.1930     0.1680    18.3662 </r>
       <r>    29.4011     0.1939    18.4066 </r>
       <r>    29.6091     0.2924    18.4674 </r>
       <r>    29.8172     0.2635    18.5222 </r>
       <r>    30.0252     0.3683    18.5988 </r>
       <r>    30.2332     0.6979    18.7440 </r>
       <r>    30.4413     1.4318    19.0419 </r>
       <r>    30.6493     1.1476    19.2806 </r>
       <r>    30.8573     0.9628    19.4809 </r>
       <r>    31.0654     0.0169    19.4845 </r>
       <r>    31.2734    -0.0418    19.4758 </r>
       <r>    31.4815     0.3550    19.5496 </r>
       <r>    31.6895     0.6857    19.6923 </r>
       <r>    31.8975     0.0719    19.7073 </r>
       <r>    32.1056    -0.0166    19.7038 </r>
       <r>    32.3136    -0.0016    19.7035 </r>
       <r>    32.5216    -0.0282    19.6976 </r>
       <r>    32.7297     0.1380    19.7263 </r>
       <r>    32.9377     1.1221    19.9597 </r>
       <r>    33.1458     1.3510    20.2408 </r>
       <r>    33.3538     0.8062    20.4085 </r>
       <r>    33.5618     0.6264    20.5388 </r>
       <r>    33.7699     0.0574    20.5508 </r>
       <r>    33.9779     0.2427    20.6012 </r>
       <r>    34.1860     1.2846    20.8685 </r>
       <r>    34.3940     0.7222    21.0188 </r>
       <r>    34.6020     0.5088    21.1246 </r>
       <r>    34.8101     0.4547    21.2192 </r>
       <r>    35.0181     0.0721    21.2342 </r>
       <r>    35.2261     0.3902    21.3154 </r>
       <r>    35.4342     0.0924    21.3346 </r>
       <r>    35.6422     0.3887    21.4155 </r>
       <r>    35.8503     0.4532    21.5097 </r>
       <r>    36.0583     0.4232    21.5978 </r>
       <r>    36.2663     0.7766    21.7593 </r>
       <r>    36.4744     1.3680    22.0439 </r>
       <r>    36.6824     0.7274    22.1953 </r>
       <r>    36.8905     0.2617    22.2497 </r>
       <r>    37.0985     0.2955    22.3112 </r>
       <r>    37.3065     0.4671    22.4083 </r>
       <r>    37.5146     0.4351    22.4989 </r>
       <r>    37.7226     0.8846    22.6829 </r>
       <r>    37.9306     0.8263    22.8548 </r>
       <r>    38.1387    -0.0161    22.8515 </r>
       <r>    38.3467     0.1192    22.8763 </r>
       <r>    38.5548     0.4878    22.9777 </r>
       <r>    38.7628     0.5514    23.0924 </r>
       <r>    38.9708     0.2855    23.1518 </r>
       <r>    39.1789     0.3014    23.2145 </r>
       <r>    39.3869     0.3011    23.2772 </r>
       <r>    39.5949     0.8840    23.4611 </r>
       <r>    39.8030     0.4423    23.5531 </r>
       <r>    40.0110     0.6088    23.6798 </r>
       <r>    40.2191     0.4029    23.7636 </r>
       <r>    40.4271     0.2212    23.8096 </r>
       <r>    40.6351     0.7691    23.9696 </r>
       <r>    40.8432     1.4314    24.2674 </r>
       <r>    41.0512     0.7517    24.4238 </r>
       <r>    41.2593     1.1097    24.6546 </r>
       <r>    41.4673     0.6716    24.7943 </r>
       <r>    41.6753     0.5275    24.9041 </r>
       <r>    41.8834     0.7128    25.0524 </r>
       <r>    42.0914     0.4496    25.1459 </r>
       <r>    42.2994     0.9621    25.3461 </r>
       <r>    42.5075     0.6597    25.4833 </r>
       <r>    42.7155     0.1793    25.5206 </r>
       <r>    42.9236     0.0398    25.5289 </r>
       <r>    43.1316     0.4340    25.6192 </r>
       <r>    43.3396     0.4838    25.7198 </r>
       <r>    43.5477     0.4446    25.8123 </r>
       <r>    43.7557     1.1417    26.0498 </r>
       <r>    43.9638     0.4922    26.1522 </r>
       <r>    44.1718     0.1981    26.1934 </r>
       <r>    44.3798     0.4653    26.2902 </r>
       <r>    44.5879     0.0337    26.2973 </r>
       <r>    44.7959     0.3666    26.3735 </r>
       <r>    45.0039     0.5640    26.4909 </r>
       <r>    45.2120     0.8854    26.6751 </r>
       <r>    45.4200     0.9040    26.8631 </r>
       <r>    45.6281     1.1248    27.0971 </r>
       <r>    45.8361     0.2346    27.1459 </r>
       <r>    46.0441     0.7066    27.2929 </r>
       <r>    46.2522     0.6508    27.4283 </r>
       <r>    46.4602     0.6399    27.5614 </r>
       <r>    46.6682     0.3139    27.6267 </r>
       <r>    46.8763     0.0317    27.6333 </r>
       <r>    47.0843     0.2425    27.6838 </r>
       <r>    47.2924     0.0868    27.7018 </r>
       <r>    47.5004     0.3228    27.7690 </r>
       <r>    47.7084     1.5942    28.1006 </r>
       <r>    47.9165     1.9339    28.5029 </r>
       <r>    48.1245     1.7033    28.8573 </r>
       <r>    48.3326     0.3921    28.9389 </r>
       <r>    48.5406     0.3043    29.0022 </r>
       <r>    48.7486     0.5091    29.1081 </r>
       <r>    48.9567     0.9054    29.2964 </r>
       <r>    49.1647     0.1942    29.3368 </r>
       <r>    49.3727    -0.0045    29.3359 </r>
       <r>    49.5808     0.7366    29.4892 </r>
       <r>    49.7888     0.5289    29.5992 </r>
       <r>    49.9969    -0.0266    29.5936 </r>
       <r>    50.2049    -0.0366    29.5860 </r>
       <r>    50.4129     0.1484    29.6169 </r>
       <r>    50.6210     1.2289    29.8726 </r>
       <r>    50.8290     0.8228    30.0437 </r>
       <r>    51.0371     0.3483    30.1162 </r>
       <r>    51.2451     0.2288    30.1638 </r>
       <r>    51.4531     0.6618    30.3015 </r>
       <r>    51.6612     0.2915    30.3621 </r>
       <r>    51.8692     0.6638    30.5002 </r>
       <r>    52.0772     1.3856    30.7885 </r>
       <r>    52.2853     0.5384    30.9005 </r>
       <r>    52.4933     1.7333    31.2611 </r>
       <r>    52.7014     1.2123    31.5133 </r>
       <r>    52.9094     0.4258    31.6019 </r>
       <r>    53.1174    -0.0405    31.5935 </r>
       <r>    53.3255    -0.0042    31.5926 </r>
       <r>    53.5335    -0.0016    31.5923 </r>
       <r>    53.7415    -0.0236    31.5873 </r>
       <r>    53.9496     0.1983    31.6286 </r>
       <r>    54.1576     0.6915    31.7724 </r>
       <r>    54.3657     0.6219    31.9018 </r>
       <r>    54.5737     0.4569    31.9969 </r>
       <r>    54.7817     0.0253    32.0021 </r>
       <r>    54.9898    -0.0101    32.0000 </r>
       <r>    55.1978    -0.0002    32.0000 </r>
       <r>    55.4059    -0.0000    32.0000 </r>
       <r>    55.6139    -0.0000    32.0000 </r>
       <r>    55.8219    -0.0000    32.0000 </r>
       <r>    56.0300     0.0000    32.0000 </r>
       <r>    56.2380     0.0000    32.0000 </r>
       <r>    56.4460     0.0000    32.0000 </r>
       <r>    56.6541     0.0000    32.0000 </r>
       <r>    56.8621     0.0000    32.0000 </r>
       <r>    57.0702     0.0000    32.0000 </r>
       <r>    57.2782     0.0000    32.0000 </r>
      </set>
     </set>
    </array>
   </total>
  </dos>
 </calculation>
 <structure name="finalpos" >
  <crystal>
   <varray name="basis" >
    <v>       2.86000000       0.00000000       0.00000000 </v>
    <v>       0.00000000       2.86000000       0.00000000 </v>
    <v>       0.00000000       0.00000000       2.86000000 </v>
   </varray>
   <i name="volume">     23.39365600 </i>
   <varray name="rec_basis" >
    <v>       0.34965035       0.00000000       0.00000000 </v>
    <v>       0.00000000       0.34965035       0.00000000 </v>
    <v>       0.00000000       0.00000000       0.34965035 </v>
   </varray>
  </crystal>
  <varray name="positions" >
   <v>       0.00000000       0.00000000       0.00000000 </v>
   <v>       0.50000000       0.50000000       0.50000000 </v>
  </varray>
 </structure>
</modeling>
