   2   2   0   0
  0.1169683E+02  0.2860000E-09  0.2860000E-09  0.2860000E-09  0.5000000E-15
  1.000000000000000E-004
  CAR 
 Fe Bulk                                 
     57.93126819     -5.38880803  301      5.51899480      1.00000000
     -5.389  0.0000E+00  0.0000E+00  0.0000E+00  0.0000E+00
     -5.178  0.0000E+00  0.0000E+00  0.0000E+00  0.0000E+00
     -4.967  0.0000E+00  0.0000E+00  0.0000E+00  0.0000E+00
     -4.756  0.0000E+00  0.0000E+00  0.0000E+00  0.0000E+00
     -4.545  0.0000E+00  0.0000E+00  0.0000E+00  0.0000E+00
     -4.333  0.0000E+00  0.0000E+00  0.0000E+00  0.0000E+00
     -4.122 -0.5239E-30 -0.4371E-37 -0.1106E-30 -0.9226E-38
     -3.911 -0.3646E-23 -0.2349E-29 -0.7696E-24 -0.4959E-30
     -3.700 -0.2674E-17 -0.1337E-22 -0.5643E-18 -0.2823E-23
     -3.489 -0.1963E-12 -0.7809E-17 -0.4143E-13 -0.1648E-17
     -3.278 -0.1504E-08 -0.4797E-12 -0.3176E-09 -0.1012E-12
     -3.067 -0.1107E-05 -0.2990E-08 -0.2340E-06 -0.6313E-09
     -2.856 -0.6326E-04 -0.1775E-05 -0.1359E-04 -0.3753E-06
     -2.645  0.2511E-03 -0.7806E-04  0.3941E-04 -0.1685E-04
     -2.434  0.2768E-02  0.4147E-03  0.6236E-03  0.7069E-04
     -2.223  0.6085E-03  0.2833E-02  0.7520E-03  0.6685E-03
     -2.012  0.1264E-02  0.3497E-03  0.1019E-02  0.7424E-03
     -1.801  0.8511E-02  0.1653E-02  0.2815E-02  0.1091E-02
     -1.590  0.1360E-02  0.8512E-02  0.3102E-02  0.2888E-02
     -1.379  0.3489E-02  0.9910E-03  0.3839E-02  0.3097E-02
     -1.167  0.7498E-02  0.3333E-02  0.5421E-02  0.3801E-02
     -0.956  0.3366E-03  0.7675E-02  0.5492E-02  0.5420E-02
     -0.745  0.9680E-02  0.2356E-04  0.7535E-02  0.5425E-02
     -0.534  0.4962E-02  0.8482E-02  0.8583E-02  0.7216E-02
     -0.323  0.1209E-01  0.6341E-02  0.1113E-01  0.8554E-02
     -0.112  0.1047E-01  0.4981E-02  0.1334E-01  0.9605E-02
      0.099  0.2563E-02  0.1632E-01  0.1389E-01  0.1305E-01
      0.310  0.1261E-01  0.1504E-02  0.1655E-01  0.1337E-01
      0.521  0.1099E-01  0.6923E-02  0.1887E-01  0.1483E-01
      0.732  0.2543E-01  0.5379E-02  0.2423E-01  0.1596E-01
      0.943  0.5445E-01  0.1394E-01  0.3572E-01  0.1891E-01
      1.154  0.4468E-01  0.7850E-02  0.4515E-01  0.2056E-01
      1.365  0.8562E-01  0.2224E-01  0.6322E-01  0.2526E-01
      1.576  0.9210E-01  0.1152E-01  0.8266E-01  0.2769E-01
      1.787  0.6766E-01  0.2142E-01  0.9695E-01  0.3221E-01
      1.999  0.6389E-01  0.1344E-01  0.1104E+00  0.3505E-01
      2.210  0.5838E-01  0.2343E-01  0.1228E+00  0.3999E-01
      2.421  0.1494E+00  0.4462E-01  0.1543E+00  0.4941E-01
      2.632  0.1314E+00  0.4417E-01  0.1820E+00  0.5873E-01
      2.843  0.1015E+00  0.3520E-01  0.2034E+00  0.6616E-01
      3.054  0.1414E+00  0.5658E-01  0.2333E+00  0.7810E-01
      3.265  0.1451E+00  0.6434E-01  0.2639E+00  0.9168E-01
      3.476  0.4835E-01  0.4730E-01  0.2741E+00  0.1017E+00
      3.687  0.5820E-01  0.2792E-01  0.2864E+00  0.1076E+00
      3.898  0.4023E-01  0.7108E-01  0.2949E+00  0.1226E+00
      4.109  0.8170E-01  0.1101E+00  0.3121E+00  0.1458E+00
      4.320  0.1381E+00  0.1416E+00  0.3413E+00  0.1757E+00
      4.531  0.2231E+00  0.1239E+00  0.3884E+00  0.2018E+00
      4.742  0.2436E+00  0.1062E+00  0.4398E+00  0.2243E+00
      4.953  0.1274E+00  0.1349E+00  0.4667E+00  0.2527E+00
      5.165  0.8925E-01  0.1004E+00  0.4855E+00  0.2739E+00
      5.376  0.8180E-01  0.3945E-01  0.5028E+00  0.2822E+00
      5.587  0.7483E-01  0.3267E-01  0.5186E+00  0.2891E+00
      5.798  0.4650E-01  0.3000E-01  0.5284E+00  0.2955E+00
      6.009  0.1977E-01  0.2603E-01  0.5326E+00  0.3010E+00
      6.220  0.1044E-01  0.3827E-01  0.5348E+00  0.3090E+00
      6.431  0.9058E-02  0.5674E-01  0.5367E+00  0.3210E+00
      6.642  0.7937E-02  0.8611E-01  0.5383E+00  0.3392E+00
      6.853  0.1269E-01  0.1031E+00  0.5410E+00  0.3610E+00
      7.064  0.3823E-01  0.1339E+00  0.5491E+00  0.3892E+00
      7.275  0.1528E-01  0.1413E+00  0.5523E+00  0.4190E+00
      7.486  0.1591E-01  0.2268E+00  0.5557E+00  0.4669E+00
      7.697  0.8428E-02  0.1629E+00  0.5575E+00  0.5013E+00
      7.908  0.1335E-01  0.1024E+00  0.5603E+00  0.5229E+00
      8.119  0.7760E-02  0.5278E-01  0.5619E+00  0.5340E+00
      8.331  0.5896E-02  0.1083E-01  0.5632E+00  0.5363E+00
      8.542  0.1108E-01  0.7562E-02  0.5655E+00  0.5379E+00
      8.753  0.1862E-01  0.3330E-01  0.5694E+00  0.5450E+00
      8.964  0.1056E-01  0.4333E-01  0.5717E+00  0.5541E+00
      9.175  0.4795E-02  0.1056E-01  0.5727E+00  0.5563E+00
      9.386  0.1203E-01  0.7897E-02  0.5752E+00  0.5580E+00
      9.597  0.2823E-01  0.1373E-01  0.5812E+00  0.5609E+00
      9.808  0.5704E-02  0.4728E-02  0.5824E+00  0.5619E+00
     10.019  0.7323E-02  0.1967E-01  0.5839E+00  0.5660E+00
     10.230  0.7867E-02  0.2574E-01  0.5856E+00  0.5715E+00
     10.441  0.1093E-01  0.8470E-02  0.5879E+00  0.5733E+00
     10.652  0.9685E-02  0.1134E-01  0.5899E+00  0.5757E+00
     10.863  0.7067E-02  0.2164E-01  0.5914E+00  0.5802E+00
     11.074  0.1401E-03  0.8742E-02  0.5914E+00  0.5821E+00
     11.285  0.2509E-02  0.5449E-02  0.5920E+00  0.5832E+00
     11.497  0.1122E-02  0.1214E-01  0.5922E+00  0.5858E+00
     11.708 -0.5621E-03  0.1391E-01  0.5921E+00  0.5887E+00
     11.919  0.2483E-02  0.1055E-01  0.5926E+00  0.5909E+00
     12.130  0.1804E-01  0.2429E-02  0.5964E+00  0.5915E+00
     12.341  0.9914E-02  0.3874E-03  0.5985E+00  0.5915E+00
     12.552  0.5834E-03  0.2388E-02  0.5986E+00  0.5920E+00
     12.763  0.1473E-01  0.4374E-02  0.6017E+00  0.5930E+00
     12.974  0.3033E-01  0.1161E-01  0.6081E+00  0.5954E+00
     13.185  0.2380E-01  0.8663E-02  0.6132E+00  0.5973E+00
     13.396  0.7131E-03  0.5353E-02  0.6133E+00  0.5984E+00
     13.607  0.1171E-01  0.1063E-03  0.6158E+00  0.5984E+00
     13.818  0.3243E-01 -0.4501E-03  0.6226E+00  0.5983E+00
     14.029  0.2377E-01  0.1992E-01  0.6277E+00  0.6025E+00
     14.240  0.1868E-01  0.4299E-01  0.6316E+00  0.6116E+00
     14.451  0.9934E-02  0.1013E-01  0.6337E+00  0.6137E+00
     14.663  0.2544E-01  0.7066E-02  0.6391E+00  0.6152E+00
     14.874  0.2559E-01  0.1611E-01  0.6445E+00  0.6186E+00
     15.085  0.4799E-02  0.3646E-01  0.6455E+00  0.6263E+00
     15.296  0.4337E-02  0.3170E-01  0.6464E+00  0.6330E+00
     15.507  0.1079E-01  0.1846E-01  0.6487E+00  0.6369E+00
     15.718  0.2541E-01  0.3563E-01  0.6540E+00  0.6444E+00
     15.929  0.2620E-01  0.8748E-02  0.6596E+00  0.6463E+00
     16.140  0.2415E-01  0.9769E-04  0.6647E+00  0.6463E+00
     16.351  0.2302E-01  0.1228E-01  0.6695E+00  0.6489E+00
     16.562  0.4346E-01  0.2598E-01  0.6787E+00  0.6544E+00
     16.773  0.1419E-01  0.2734E-01  0.6817E+00  0.6601E+00
     16.984  0.8062E-02  0.1956E-01  0.6834E+00  0.6643E+00
     17.195  0.3774E-02  0.2565E-01  0.6842E+00  0.6697E+00
     17.406  0.1703E-01  0.3741E-01  0.6878E+00  0.6776E+00
     17.617  0.9448E-02  0.2946E-01  0.6898E+00  0.6838E+00
     17.829  0.1877E-01 -0.1343E-02  0.6937E+00  0.6835E+00
     18.040  0.3009E-01  0.8985E-02  0.7001E+00  0.6854E+00
     18.251  0.1284E-01  0.1701E-01  0.7028E+00  0.6890E+00
     18.462  0.2168E-01  0.1463E-01  0.7074E+00  0.6921E+00
     18.673  0.3182E-01  0.3102E-01  0.7141E+00  0.6986E+00
     18.884  0.2257E-01  0.1207E-01  0.7189E+00  0.7012E+00
     19.095  0.8712E-02  0.2203E-01  0.7207E+00  0.7058E+00
     19.306  0.1034E-01  0.1476E-01  0.7229E+00  0.7089E+00
     19.517  0.1612E-01  0.3404E-01  0.7263E+00  0.7161E+00
     19.728  0.1887E-01  0.2158E-01  0.7303E+00  0.7207E+00
     19.939  0.1824E-01  0.1083E-01  0.7341E+00  0.7230E+00
     20.150  0.1607E-01  0.1037E-01  0.7375E+00  0.7252E+00
     20.361  0.1620E-01  0.1928E-01  0.7409E+00  0.7292E+00
     20.572  0.1812E-01  0.2295E-01  0.7447E+00  0.7341E+00
     20.783  0.9773E-02  0.1447E-01  0.7468E+00  0.7371E+00
     20.995  0.6813E-02  0.1513E-01  0.7482E+00  0.7403E+00
     21.206  0.4459E-01  0.2482E-01  0.7577E+00  0.7456E+00
     21.417  0.2065E-01  0.9137E-02  0.7620E+00  0.7475E+00
     21.628  0.2274E-02  0.4866E-02  0.7625E+00  0.7485E+00
     21.839  0.2190E-01  0.4701E-01  0.7671E+00  0.7584E+00
     22.050  0.3110E-01  0.1692E-01  0.7737E+00  0.7620E+00
     22.261  0.7234E-02  0.1068E-02  0.7752E+00  0.7622E+00
     22.472  0.2078E-01  0.1989E-01  0.7796E+00  0.7664E+00
     22.683  0.3332E-01  0.3118E-01  0.7866E+00  0.7730E+00
     22.894  0.1117E-01  0.1985E-01  0.7890E+00  0.7772E+00
     23.105  0.2411E-01  0.1631E-01  0.7941E+00  0.7806E+00
     23.316  0.3022E-01  0.2773E-01  0.8005E+00  0.7865E+00
     23.527  0.4033E-01  0.3797E-01  0.8090E+00  0.7945E+00
     23.738  0.1192E-01  0.1976E-01  0.8115E+00  0.7987E+00
     23.949  0.3389E-01  0.1569E-01  0.8186E+00  0.8020E+00
     24.161  0.3471E-01  0.3074E-01  0.8260E+00  0.8085E+00
     24.372  0.9201E-02  0.3536E-01  0.8279E+00  0.8159E+00
     24.583  0.2489E-01  0.3664E-01  0.8332E+00  0.8237E+00
     24.794  0.3637E-01  0.1607E-01  0.8408E+00  0.8271E+00
     25.005  0.3552E-01  0.3410E-01  0.8483E+00  0.8343E+00
     25.216  0.8784E-02  0.3585E-01  0.8502E+00  0.8418E+00
     25.427  0.1477E-01  0.2409E-01  0.8533E+00  0.8469E+00
     25.638  0.4155E-01  0.8965E-02  0.8621E+00  0.8488E+00
     25.849  0.3133E-01  0.1302E-01  0.8687E+00  0.8516E+00
     26.060  0.2083E-01  0.3587E-01  0.8731E+00  0.8591E+00
     26.271  0.2117E-01  0.4085E-01  0.8776E+00  0.8678E+00
     26.482  0.9757E-02  0.1801E-01  0.8796E+00  0.8716E+00
     26.693  0.9443E-02  0.3156E-01  0.8816E+00  0.8782E+00
     26.904  0.3259E-01  0.8260E-02  0.8885E+00  0.8800E+00
     27.115  0.1537E-01  0.7259E-02  0.8917E+00  0.8815E+00
     27.327  0.2269E-01  0.1480E-01  0.8965E+00  0.8846E+00
     27.538  0.1577E-01  0.2519E-01  0.8998E+00  0.8899E+00
     27.749  0.6631E-02  0.3123E-01  0.9012E+00  0.8965E+00
     27.960  0.3218E-01  0.1700E-01  0.9080E+00  0.9001E+00
     28.171  0.2844E-01  0.1495E-01  0.9140E+00  0.9033E+00
     28.382  0.1130E-01  0.2388E-01  0.9164E+00  0.9083E+00
     28.593  0.5138E-02  0.2873E-01  0.9175E+00  0.9144E+00
     28.804  0.2092E-01  0.1030E-01  0.9219E+00  0.9165E+00
     29.015  0.9662E-02  0.2827E-02  0.9240E+00  0.9171E+00
     29.226  0.9828E-02  0.1997E-01  0.9260E+00  0.9214E+00
     29.437  0.6136E-02  0.6749E-02  0.9273E+00  0.9228E+00
     29.648  0.2613E-01  0.1107E-01  0.9329E+00  0.9251E+00
     29.859  0.5212E-01  0.1610E-01  0.9439E+00  0.9285E+00
     30.070  0.3929E-01  0.2528E-01  0.9521E+00  0.9338E+00
     30.282  0.3426E-01  0.5073E-01  0.9594E+00  0.9446E+00
     30.493  0.3507E-01  0.2933E-01  0.9668E+00  0.9507E+00
     30.704  0.9957E-02  0.4376E-01  0.9689E+00  0.9600E+00
     30.915  0.1704E-01  0.3434E-01  0.9725E+00  0.9672E+00
     31.126  0.1607E-01  0.6170E-02  0.9759E+00  0.9685E+00
     31.337  0.1322E-02  0.1335E-01  0.9761E+00  0.9714E+00
     31.548  0.1121E-01  0.2155E-01  0.9785E+00  0.9759E+00
     31.759  0.2588E-01  0.1411E-01  0.9840E+00  0.9789E+00
     31.970  0.2644E-01  0.2312E-01  0.9896E+00  0.9838E+00
     32.181  0.1276E-01  0.2946E-01  0.9922E+00  0.9900E+00
     32.392  0.2178E-01  0.3642E-02  0.9968E+00  0.9907E+00
     32.603  0.2036E-01  0.1333E-01  0.1001E+01  0.9936E+00
     32.814  0.3199E-01  0.2561E-01  0.1008E+01  0.9990E+00
     33.025  0.3228E-01  0.1556E-01  0.1015E+01  0.1002E+01
     33.236  0.2601E-01  0.2368E-01  0.1020E+01  0.1007E+01
     33.448  0.5373E-01  0.1461E-01  0.1032E+01  0.1010E+01
     33.659  0.6299E-01  0.1797E-01  0.1045E+01  0.1014E+01
     33.870  0.2134E-01  0.6767E-01  0.1049E+01  0.1028E+01
     34.081  0.1195E-01  0.6273E-01  0.1052E+01  0.1042E+01
     34.292  0.2051E-01  0.2844E-01  0.1056E+01  0.1048E+01
     34.503  0.1174E-01  0.2651E-01  0.1059E+01  0.1053E+01
     34.714  0.1124E-02  0.1180E-01  0.1059E+01  0.1056E+01
     34.925  0.2812E-01  0.8823E-02  0.1065E+01  0.1058E+01
     35.136  0.3208E-01  0.1100E-01  0.1072E+01  0.1060E+01
     35.347  0.1692E-01  0.3604E-01  0.1075E+01  0.1068E+01
     35.558  0.2512E-01  0.2914E-01  0.1080E+01  0.1074E+01
     35.769  0.3481E-01  0.1658E-01  0.1088E+01  0.1077E+01
     35.980  0.1590E-01  0.3467E-01  0.1091E+01  0.1084E+01
     36.191  0.1333E-01  0.2207E-01  0.1094E+01  0.1089E+01
     36.402  0.3623E-01 -0.2153E-02  0.1102E+01  0.1089E+01
     36.614  0.4889E-01  0.3283E-01  0.1112E+01  0.1096E+01
     36.825  0.4830E-01  0.4935E-01  0.1122E+01  0.1106E+01
     37.036  0.1079E-01  0.1080E-01  0.1124E+01  0.1108E+01
     37.247  0.5451E-02  0.3742E-01  0.1126E+01  0.1116E+01
     37.458  0.2435E-01  0.4218E-01  0.1131E+01  0.1125E+01
     37.669  0.3325E-01  0.1340E-01  0.1138E+01  0.1128E+01
     37.880  0.3985E-01  0.1310E-01  0.1146E+01  0.1131E+01
     38.091  0.2745E-01  0.4208E-01  0.1152E+01  0.1140E+01
     38.302  0.3048E-01  0.2250E-01  0.1158E+01  0.1144E+01
     38.513  0.2461E-01  0.2535E-01  0.1164E+01  0.1150E+01
     38.724  0.8110E-02  0.4090E-01  0.1165E+01  0.1158E+01
     38.935  0.1279E-01  0.2619E-01  0.1168E+01  0.1164E+01
     39.146  0.3027E-01  0.1166E-01  0.1174E+01  0.1166E+01
     39.357  0.4606E-01  0.1853E-01  0.1184E+01  0.1170E+01
     39.568  0.2630E-01  0.1993E-01  0.1190E+01  0.1174E+01
     39.780  0.1904E-01  0.3981E-01  0.1194E+01  0.1183E+01
     39.991  0.1670E-01  0.4008E-01  0.1197E+01  0.1191E+01
     40.202  0.5214E-01  0.1118E-01  0.1208E+01  0.1194E+01
     40.413  0.4301E-01  0.7511E-02  0.1217E+01  0.1195E+01
     40.624  0.1483E-01  0.4021E-01  0.1220E+01  0.1204E+01
     40.835  0.2022E-02  0.5682E-01  0.1221E+01  0.1216E+01
     41.046  0.6021E-02  0.1988E-01  0.1222E+01  0.1220E+01
     41.257  0.2921E-01  0.4205E-02  0.1228E+01  0.1221E+01
     41.468  0.3784E-01  0.2373E-02  0.1236E+01  0.1221E+01
     41.679  0.3827E-01  0.1332E-01  0.1244E+01  0.1224E+01
     41.890  0.4704E-01  0.5760E-01  0.1254E+01  0.1236E+01
     42.101  0.6191E-01  0.4816E-01  0.1267E+01  0.1246E+01
     42.312  0.2486E-01  0.3623E-01  0.1273E+01  0.1254E+01
     42.523  0.2902E-01  0.5184E-01  0.1279E+01  0.1265E+01
     42.734  0.2162E-01  0.2893E-01  0.1283E+01  0.1271E+01
     42.946  0.2868E-01  0.2193E-01  0.1289E+01  0.1276E+01
     43.157  0.2575E-01  0.3896E-01  0.1295E+01  0.1284E+01
     43.368  0.3976E-01  0.2432E-01  0.1303E+01  0.1289E+01
     43.579  0.2148E-01  0.2698E-01  0.1308E+01  0.1295E+01
     43.790  0.3518E-01  0.2727E-01  0.1315E+01  0.1301E+01
     44.001  0.2665E-01  0.1983E-01  0.1321E+01  0.1305E+01
     44.212  0.5187E-01  0.3830E-01  0.1332E+01  0.1313E+01
     44.423  0.2613E-01  0.3261E-01  0.1337E+01  0.1320E+01
     44.634  0.4433E-02  0.2406E-01  0.1338E+01  0.1325E+01
     44.845  0.2065E-01  0.3065E-01  0.1342E+01  0.1331E+01
     45.056  0.2359E-01  0.2920E-01  0.1347E+01  0.1337E+01
     45.267  0.5924E-02  0.8780E-02  0.1349E+01  0.1339E+01
     45.478  0.5362E-01  0.1842E-01  0.1360E+01  0.1343E+01
     45.689  0.5249E-01  0.2806E-01  0.1371E+01  0.1349E+01
     45.900  0.3153E-03  0.2498E-01  0.1371E+01  0.1354E+01
     46.112  0.6343E-02  0.4009E-01  0.1373E+01  0.1363E+01
     46.323  0.2082E-01  0.4655E-01  0.1377E+01  0.1373E+01
     46.534  0.3751E-01  0.2302E-01  0.1385E+01  0.1378E+01
     46.745  0.4986E-01  0.9644E-02  0.1395E+01  0.1380E+01
     46.956  0.4165E-01  0.1795E-01  0.1404E+01  0.1383E+01
     47.167  0.4401E-01  0.5206E-01  0.1413E+01  0.1394E+01
     47.378  0.4343E-01  0.1771E-01  0.1423E+01  0.1398E+01
     47.589  0.4084E-01  0.4201E-01  0.1431E+01  0.1407E+01
     47.800  0.5318E-01  0.4853E-01  0.1442E+01  0.1417E+01
     48.011  0.3093E-01  0.2700E-01  0.1449E+01  0.1423E+01
     48.222  0.9320E-02  0.7122E-01  0.1451E+01  0.1438E+01
     48.433  0.9238E-02  0.4715E-01  0.1453E+01  0.1448E+01
     48.644  0.2698E-01  0.3463E-02  0.1459E+01  0.1449E+01
     48.855  0.1182E-01  0.1029E-01  0.1461E+01  0.1451E+01
     49.066  0.1967E-03  0.8614E-02  0.1461E+01  0.1453E+01
     49.278  0.2630E-01  0.1927E-01  0.1467E+01  0.1457E+01
     49.489  0.4991E-01  0.1882E-01  0.1477E+01  0.1461E+01
     49.700  0.2127E-01  0.1239E-01  0.1482E+01  0.1463E+01
     49.911  0.2959E-01  0.4431E-01  0.1488E+01  0.1473E+01
     50.122  0.3601E-01  0.4878E-01  0.1496E+01  0.1483E+01
     50.333  0.6036E-01 -0.1962E-02  0.1508E+01  0.1482E+01
     50.544  0.2424E-01  0.3369E-01  0.1513E+01  0.1490E+01
     50.755  0.2264E-01  0.7878E-01  0.1518E+01  0.1506E+01
     50.966  0.2411E-01  0.2064E-01  0.1523E+01  0.1511E+01
     51.177  0.2177E-01  0.1411E-01  0.1528E+01  0.1514E+01
     51.388  0.2022E-01  0.1547E-01  0.1532E+01  0.1517E+01
     51.599  0.3554E-01  0.2067E-01  0.1540E+01  0.1521E+01
     51.810  0.3100E-01  0.3482E-01  0.1546E+01  0.1529E+01
     52.021  0.2117E-01  0.2304E-01  0.1551E+01  0.1533E+01
     52.232  0.3374E-01  0.2167E-01  0.1558E+01  0.1538E+01
     52.444  0.5797E-01  0.3442E-01  0.1570E+01  0.1545E+01
     52.655  0.3698E-01  0.3042E-01  0.1578E+01  0.1552E+01
     52.866  0.2455E-01  0.1665E-01  0.1583E+01  0.1555E+01
     53.077  0.2840E-01  0.3745E-01  0.1589E+01  0.1563E+01
     53.288  0.8624E-03  0.4868E-01  0.1589E+01  0.1573E+01
     53.499 -0.3198E-03  0.3426E-01  0.1589E+01  0.1581E+01
     53.710  0.5214E-02  0.1559E-01  0.1590E+01  0.1584E+01
     53.921  0.1973E-02  0.2296E-01  0.1591E+01  0.1589E+01
     54.132  0.2132E-03  0.2027E-02  0.1591E+01  0.1589E+01
     54.343  0.2067E-01  0.1355E-02  0.1595E+01  0.1589E+01
     54.554  0.2020E-01  0.5096E-02  0.1599E+01  0.1590E+01
     54.765  0.3941E-02  0.1506E-02  0.1600E+01  0.1591E+01
     54.976 -0.4673E-03  0.1688E-01  0.1600E+01  0.1594E+01
     55.187 -0.4017E-04  0.2557E-01  0.1600E+01  0.1600E+01
     55.398 -0.1950E-06  0.1621E-02  0.1600E+01  0.1600E+01
     55.610 -0.8598E-10 -0.5296E-03  0.1600E+01  0.1600E+01
     55.821 -0.3768E-14 -0.8583E-05  0.1600E+01  0.1600E+01
     56.032  0.0000E+00 -0.1110E-07  0.1600E+01  0.1600E+01
     56.243  0.0000E+00 -0.1394E-11  0.1600E+01  0.1600E+01
     56.454  0.0000E+00 -0.1726E-16  0.1600E+01  0.1600E+01
     56.665  0.0000E+00  0.0000E+00  0.1600E+01  0.1600E+01
     56.876  0.0000E+00  0.0000E+00  0.1600E+01  0.1600E+01
     57.087  0.0000E+00  0.0000E+00  0.1600E+01  0.1600E+01
     57.298  0.0000E+00  0.0000E+00  0.1600E+01  0.1600E+01
     57.509  0.0000E+00  0.0000E+00  0.1600E+01  0.1600E+01
     57.720  0.0000E+00  0.0000E+00  0.1600E+01  0.1600E+01
     57.931  0.0000E+00  0.0000E+00  0.1600E+01  0.1600E+01
