    2    2   20    2
  0.1169683E+02  0.2860000E-09  0.2860000E-09  0.2860000E-09  0.5000000E-15
  1.000000000000000E-004
  CAR 
 Fe Bulk                                 
     16    256     32
 
  0.6250000E-01  0.6250000E-01  0.6250000E-01  0.3906250E-02
    1       -2.510623     -2.318432   1.000000   1.000000
    2        0.962515      2.824973   1.000000   1.000000
    3        0.962515      2.824973   1.000000   1.000000
    4        3.221900      5.210616   1.000000   1.025752
    5        3.221900      5.210617   1.000000   1.025752
    6        3.413237      5.427810   1.000000   0.844937
    7        4.436998      7.197632   1.000000  -0.000000
    8        4.436998      7.197632   1.000000  -0.000000
    9        5.240678      7.435304   1.032075  -0.000000
   10        5.523413      7.794049   0.481311  -0.000000
   11        5.523413      7.794049   0.481311  -0.000000
   12       14.815503     15.269654   0.000000   0.000000
   13       14.815503     15.269654   0.000000   0.000000
   14       15.184040     15.595263   0.000000   0.000000
   15       21.643631     22.522274   0.000000   0.000000
   16       21.643631     22.522274   0.000000   0.000000
   17       26.363882     27.473806   0.000000   0.000000
   18       29.071811     29.035804   0.000000   0.000000
   19       29.071811     29.035804   0.000000   0.000000
   20       30.461682     30.227180   0.000000   0.000000
   21       33.941569     34.858064   0.000000   0.000000
   22       35.106506     35.434721   0.000000   0.000000
   23       35.106506     35.434721   0.000000   0.000000
   24       36.734027     37.458882   0.000000   0.000000
   25       36.734027     37.458882   0.000000   0.000000
   26       40.156018     41.024057   0.000000   0.000000
   27       40.156018     41.024057   0.000000   0.000000
   28       40.304952     41.231066   0.000000   0.000000
   29       43.506956     43.793716   0.000000   0.000000
   30       49.060435     49.708428   0.000000   0.000000
   31       50.791130     51.547206   0.000000   0.000000
   32       50.791130     51.547206   0.000000   0.000000
 
  0.1875000E+00  0.6250000E-01  0.6250000E-01  0.3906250E-02
    1       -1.900652     -1.701431   1.000000   1.000000
    2        1.206055      2.991138   1.000000   1.000000
    3        1.211519      3.121670   1.000000   1.000000
    4        3.140960      5.101918   1.000000   1.006009
    5        3.201333      5.170604   1.000000   1.016758
    6        3.665750      5.702938   1.000000  -0.014665
    7        4.206217      6.768591   1.000000  -0.000000
    8        4.549793      6.886943   1.000000  -0.000000
    9        4.701080      7.229029   1.000000  -0.000000
   10        5.081301      7.336162   1.004151  -0.000000
   11        5.490758      7.761678   0.618171  -0.000000
   12       11.986354     12.795575   0.000000   0.000000
   13       15.844755     16.436567   0.000000   0.000000
   14       16.109135     16.639744   0.000000   0.000000
   15       21.927849     22.744872   0.000000   0.000000
   16       23.346658     24.030708   0.000000   0.000000
   17       26.428766     26.640331   0.000000   0.000000
   18       27.831928     28.094833   0.000000   0.000000
   19       28.602863     29.590785   0.000000   0.000000
   20       29.900120     29.902621   0.000000   0.000000
   21       32.186438     32.854002   0.000000   0.000000
   22       32.939960     33.390252   0.000000   0.000000
   23       34.888361     35.526036   0.000000   0.000000
   24       38.237755     38.864630   0.000000   0.000000
   25       39.034857     39.189095   0.000000   0.000000
   26       41.534524     41.915433   0.000000   0.000000
   27       41.882056     42.625505   0.000000   0.000000
   28       43.000198     43.859596   0.000000   0.000000
   29       44.082382     44.844277   0.000000   0.000000
   30       46.690232     47.205436   0.000000   0.000000
   31       47.173220     47.755668   0.000000   0.000000
   32       51.585394     52.460471   0.000000   0.000000
 
  0.3125000E+00  0.6250000E-01  0.6250000E-01  0.3906250E-02
    1       -0.788710     -0.548524   1.000000   1.000000
    2        1.491701      2.998419   1.000000   1.000000
    3        1.673237      3.673862   1.000000   1.000000
    4        3.160746      5.095579   1.000000   1.005378
    5        3.170566      5.130034   1.000000   1.009516
    6        3.829624      6.081367   1.000000  -0.000257
    7        4.019851      6.091681   1.000000  -0.000196
    8        4.101359      6.340051   1.000000  -0.000000
    9        4.479203      6.521145   1.000000  -0.000000
   10        4.763261      7.467362   1.000001  -0.000000
   11        5.232321      7.553856   1.030491  -0.000000
   12        8.953881     10.235005  -0.000000  -0.000000
   13       17.564312     18.286081   0.000000   0.000000
   14       17.836368     18.473289   0.000000   0.000000
   15       22.569590     23.271077   0.000000   0.000000
   16       23.943851     24.386065   0.000000   0.000000
   17       24.299844     24.892922   0.000000   0.000000
   18       25.235976     25.768946   0.000000   0.000000
   19       27.816087     28.160395   0.000000   0.000000
   20       29.578161     30.086186   0.000000   0.000000
   21       32.963827     33.780289   0.000000   0.000000
   22       33.428543     33.872206   0.000000   0.000000
   23       35.654912     36.030183   0.000000   0.000000
   24       39.128949     39.690947   0.000000   0.000000
   25       39.286605     39.737827   0.000000   0.000000
   26       43.665951     44.021720   0.000000   0.000000
   27       43.685858     44.166681   0.000000   0.000000
   28       43.874540     44.249101   0.000000   0.000000
   29       44.124998     44.582480   0.000000   0.000000
   30       46.774904     47.599016   0.000000   0.000000
   31       48.553235     49.227501   0.000000   0.000000
   32       49.821288     50.484402   0.000000   0.000000
 
  0.4375000E+00  0.6250000E-01  0.6250000E-01  0.3906250E-02
    1        0.513844      0.935710   1.000000   1.000000
    2        1.388198      2.313505   1.000000   1.000000
    3        2.271754      4.382371   1.000000   1.000000
    4        2.867749      4.982912   1.000000   1.000498
    5        3.351656      5.255233   1.000000   1.034262
    6        3.648152      5.587785   1.000000   0.227134
    7        3.681598      5.853708   1.000000  -0.019713
    8        3.963840      5.979902   1.000000  -0.002651
    9        4.433590      6.562741   1.000000  -0.000000
   10        4.849203      7.042143   1.000012  -0.000000
   11        5.247241      7.851600   1.033167  -0.000000
   12        6.566117      8.557811  -0.000000  -0.000000
   13       19.607618     20.370494   0.000000   0.000000
   14       20.018985     20.694775   0.000000   0.000000
   15       21.729112     22.386674   0.000000   0.000000
   16       22.509326     23.148241   0.000000   0.000000
   17       23.717350     24.283107   0.000000   0.000000
   18       25.407353     25.915512   0.000000   0.000000
   19       25.511781     25.979240   0.000000   0.000000
   20       27.162752     27.646378   0.000000   0.000000
   21       35.014870     35.463312   0.000000   0.000000
   22       36.783641     37.275598   0.000000   0.000000
   23       37.736153     38.077651   0.000000   0.000000
   24       38.510893     39.198151   0.000000   0.000000
   25       40.196674     40.702500   0.000000   0.000000
   26       40.493931     40.891464   0.000000   0.000000
   27       42.027339     42.489090   0.000000   0.000000
   28       43.653968     44.218971   0.000000   0.000000
   29       46.368443     47.093015   0.000000   0.000000
   30       47.797055     48.395194   0.000000   0.000000
   31       49.342471     49.556057   0.000000   0.000000
   32       51.944335     52.756683   0.000000   0.000000
 
 -0.4375000E+00  0.6250000E-01  0.6250000E-01  0.3906250E-02
    1        0.513844      0.935710   1.000000   1.000000
    2        1.388198      2.313505   1.000000   1.000000
    3        2.271754      4.382371   1.000000   1.000000
    4        2.867749      4.982912   1.000000   1.000498
    5        3.351656      5.255233   1.000000   1.034262
    6        3.648152      5.587785   1.000000   0.227134
    7        3.681598      5.853708   1.000000  -0.019713
    8        3.963840      5.979902   1.000000  -0.002651
    9        4.433590      6.562741   1.000000  -0.000000
   10        4.849203      7.042143   1.000012  -0.000000
   11        5.247241      7.851600   1.033167  -0.000000
   12        6.566117      8.557811  -0.000000  -0.000000
   13       19.607618     20.370494   0.000000   0.000000
   14       20.018985     20.694775   0.000000   0.000000
   15       21.729112     22.386674   0.000000   0.000000
   16       22.509326     23.148241   0.000000   0.000000
   17       23.717350     24.283107   0.000000   0.000000
   18       25.407353     25.915512   0.000000   0.000000
   19       25.511781     25.979240   0.000000   0.000000
   20       27.162752     27.646378   0.000000   0.000000
   21       35.014870     35.463312   0.000000   0.000000
   22       36.783641     37.275598   0.000000   0.000000
   23       37.736153     38.077651   0.000000   0.000000
   24       38.510893     39.198151   0.000000   0.000000
   25       40.196674     40.702500   0.000000   0.000000
   26       40.493931     40.891464   0.000000   0.000000
   27       42.027339     42.489090   0.000000   0.000000
   28       43.653968     44.218971   0.000000   0.000000
   29       46.368443     47.093015   0.000000   0.000000
   30       47.797055     48.395194   0.000000   0.000000
   31       49.342471     49.556057   0.000000   0.000000
   32       51.944335     52.756683   0.000000   0.000000
 
 -0.3125000E+00  0.6250000E-01  0.6250000E-01  0.3906250E-02
    1       -0.788710     -0.548524   1.000000   1.000000
    2        1.491701      2.998419   1.000000   1.000000
    3        1.673237      3.673862   1.000000   1.000000
    4        3.160746      5.095579   1.000000   1.005378
    5        3.170566      5.130034   1.000000   1.009516
    6        3.829624      6.081367   1.000000  -0.000257
    7        4.019851      6.091681   1.000000  -0.000196
    8        4.101359      6.340051   1.000000  -0.000000
    9        4.479203      6.521145   1.000000  -0.000000
   10        4.763261      7.467362   1.000001  -0.000000
   11        5.232321      7.553856   1.030491  -0.000000
   12        8.953881     10.235005  -0.000000  -0.000000
   13       17.564312     18.286081   0.000000   0.000000
   14       17.836368     18.473289   0.000000   0.000000
   15       22.569590     23.271077   0.000000   0.000000
   16       23.943851     24.386064   0.000000   0.000000
   17       24.299844     24.892922   0.000000   0.000000
   18       25.235976     25.768946   0.000000   0.000000
   19       27.816087     28.160395   0.000000   0.000000
   20       29.578161     30.086186   0.000000   0.000000
   21       32.963827     33.780289   0.000000   0.000000
   22       33.428544     33.872206   0.000000   0.000000
   23       35.654912     36.030183   0.000000   0.000000
   24       39.128949     39.690947   0.000000   0.000000
   25       39.286605     39.737827   0.000000   0.000000
   26       43.665951     44.021720   0.000000   0.000000
   27       43.685858     44.166681   0.000000   0.000000
   28       43.874540     44.249101   0.000000   0.000000
   29       44.124998     44.582480   0.000000   0.000000
   30       46.774904     47.599016   0.000000   0.000000
   31       48.553235     49.227501   0.000000   0.000000
   32       49.821288     50.484402   0.000000   0.000000
 
 -0.1875000E+00  0.6250000E-01  0.6250000E-01  0.3906250E-02
    1       -1.900652     -1.701431   1.000000   1.000000
    2        1.206055      2.991138   1.000000   1.000000
    3        1.211519      3.121670   1.000000   1.000000
    4        3.140960      5.101919   1.000000   1.006009
    5        3.201333      5.170604   1.000000   1.016758
    6        3.665750      5.702938   1.000000  -0.014665
    7        4.206217      6.768591   1.000000  -0.000000
    8        4.549793      6.886943   1.000000  -0.000000
    9        4.701080      7.229029   1.000000  -0.000000
   10        5.081301      7.336162   1.004151  -0.000000
   11        5.490758      7.761678   0.618171  -0.000000
   12       11.986354     12.795575   0.000000   0.000000
   13       15.844755     16.436567   0.000000   0.000000
   14       16.109135     16.639744   0.000000   0.000000
   15       21.927849     22.744872   0.000000   0.000000
   16       23.346658     24.030708   0.000000   0.000000
   17       26.428766     26.640331   0.000000   0.000000
   18       27.831928     28.094833   0.000000   0.000000
   19       28.602863     29.590785   0.000000   0.000000
   20       29.900120     29.902621   0.000000   0.000000
   21       32.186438     32.854002   0.000000   0.000000
   22       32.939960     33.390252   0.000000   0.000000
   23       34.888361     35.526036   0.000000   0.000000
   24       38.237755     38.864630   0.000000   0.000000
   25       39.034857     39.189095   0.000000   0.000000
   26       41.534524     41.915433   0.000000   0.000000
   27       41.882056     42.625505   0.000000   0.000000
   28       43.000198     43.859596   0.000000   0.000000
   29       44.082382     44.844277   0.000000   0.000000
   30       46.690232     47.205436   0.000000   0.000000
   31       47.173220     47.755668   0.000000   0.000000
   32       51.585394     52.460471   0.000000   0.000000
 
 -0.6250000E-01  0.6250000E-01  0.6250000E-01  0.3906250E-02
    1       -2.510623     -2.318432   1.000000   1.000000
    2        0.962515      2.824973   1.000000   1.000000
    3        0.962515      2.824973   1.000000   1.000000
    4        3.221900      5.210617   1.000000   1.025752
    5        3.221900      5.210617   1.000000   1.025752
    6        3.413237      5.427810   1.000000   0.844937
    7        4.436998      7.197632   1.000000  -0.000000
    8        4.436998      7.197632   1.000000  -0.000000
    9        5.240678      7.435304   1.032075  -0.000000
   10        5.523413      7.794049   0.481311  -0.000000
   11        5.523413      7.794049   0.481311  -0.000000
   12       14.815503     15.269654   0.000000   0.000000
   13       14.815503     15.269654   0.000000   0.000000
   14       15.184040     15.595263   0.000000   0.000000
   15       21.643631     22.522274   0.000000   0.000000
   16       21.643631     22.522274   0.000000   0.000000
   17       26.363882     27.473806   0.000000   0.000000
   18       29.071811     29.035804   0.000000   0.000000
   19       29.071811     29.035804   0.000000   0.000000
   20       30.461682     30.227180   0.000000   0.000000
   21       33.941569     34.858064   0.000000   0.000000
   22       35.106506     35.434721   0.000000   0.000000
   23       35.106506     35.434721   0.000000   0.000000
   24       36.734027     37.458882   0.000000   0.000000
   25       36.734027     37.458882   0.000000   0.000000
   26       40.156018     41.024057   0.000000   0.000000
   27       40.156018     41.024057   0.000000   0.000000
   28       40.304952     41.231066   0.000000   0.000000
   29       43.506956     43.793716   0.000000   0.000000
   30       49.060435     49.708428   0.000000   0.000000
   31       50.791130     51.547206   0.000000   0.000000
   32       50.791130     51.547206   0.000000   0.000000
 
  0.6250000E-01  0.1875000E+00  0.6250000E-01  0.3906250E-02
    1       -1.900652     -1.701431   1.000000   1.000000
    2        1.206055      2.991138   1.000000   1.000000
    3        1.211519      3.121670   1.000000   1.000000
    4        3.140960      5.101918   1.000000   1.006009
    5        3.201333      5.170604   1.000000   1.016758
    6        3.665750      5.702938   1.000000  -0.014665
    7        4.206217      6.768591   1.000000  -0.000000
    8        4.549793      6.886943   1.000000  -0.000000
    9        4.701080      7.229029   1.000000  -0.000000
   10        5.081301      7.336162   1.004151  -0.000000
   11        5.490758      7.761678   0.618171  -0.000000
   12       11.986354     12.795575   0.000000   0.000000
   13       15.844755     16.436567   0.000000   0.000000
   14       16.109135     16.639744   0.000000   0.000000
   15       21.927849     22.744872   0.000000   0.000000
   16       23.346658     24.030708   0.000000   0.000000
   17       26.428766     26.640331   0.000000   0.000000
   18       27.831928     28.094833   0.000000   0.000000
   19       28.602863     29.590785   0.000000   0.000000
   20       29.900120     29.902621   0.000000   0.000000
   21       32.186438     32.854002   0.000000   0.000000
   22       32.939960     33.390252   0.000000   0.000000
   23       34.888361     35.526036   0.000000   0.000000
   24       38.237755     38.864630   0.000000   0.000000
   25       39.034857     39.189095   0.000000   0.000000
   26       41.534524     41.915433   0.000000   0.000000
   27       41.882056     42.625505   0.000000   0.000000
   28       43.000198     43.859596   0.000000   0.000000
   29       44.082382     44.844277   0.000000   0.000000
   30       46.690232     47.205436   0.000000   0.000000
   31       47.173220     47.755668   0.000000   0.000000
   32       51.585394     52.460471   0.000000   0.000000
 
  0.1875000E+00  0.1875000E+00  0.6250000E-01  0.3906250E-02
    1       -1.330732     -1.115408   1.000000   1.000000
    2        1.367286      3.222459   1.000000   1.000000
    3        1.502550      3.304863   1.000000   1.000000
    4        2.919404      4.844241   1.000000   1.000010
    5        3.104367      5.034577   1.000000   1.001628
    6        4.064271      6.034365   1.000000  -0.000816
    7        4.076860      6.137434   1.000000  -0.000055
    8        4.290817      6.893202   1.000000  -0.000000
    9        4.488943      6.959629   1.000000  -0.000000
   10        4.788432      7.260346   1.000002  -0.000000
   11        5.590715      7.875488   0.217076  -0.000000
   12       12.121190     13.000225   0.000000   0.000000
   13       13.659884     14.566407   0.000000   0.000000
   14       16.851137     17.454671   0.000000   0.000000
   15       22.798194     23.489240   0.000000   0.000000
   16       23.961666     24.430307   0.000000   0.000000
   17       25.563861     26.041613   0.000000   0.000000
   18       26.839020     27.043805   0.000000   0.000000
   19       29.801234     30.333630   0.000000   0.000000
   20       29.902049     30.621408   0.000000   0.000000
   21       30.335484     30.885092   0.000000   0.000000
   22       34.185444     34.865593   0.000000   0.000000
   23       35.011204     35.290616   0.000000   0.000000
   24       38.226416     38.555824   0.000000   0.000000
   25       38.965748     39.414922   0.000000   0.000000
   26       40.064848     40.566761   0.000000   0.000000
   27       43.998594     44.537191   0.000000   0.000000
   28       44.039238     44.737760   0.000000   0.000000
   29       44.838316     45.581748   0.000000   0.000000
   30       46.464053     47.040924   0.000000   0.000000
   31       49.435713     50.007727   0.000000   0.000000
   32       51.808930     52.502166   0.000000   0.000000
 
  0.3125000E+00  0.1875000E+00  0.6250000E-01  0.3906250E-02
    1       -0.332963     -0.039220   1.000000   1.000000
    2        1.546049      3.167303   1.000000   1.000000
    3        1.957012      3.775437   1.000000   1.000000
    4        2.795180      4.684793   1.000000   1.000000
    5        3.043980      4.900415   1.000000   1.000055
    6        3.507764      5.418599   1.000000   0.871183
    7        4.150834      6.445455   1.000000  -0.000000
    8        4.334102      6.640685   1.000000  -0.000000
    9        4.525857      6.711318   1.000000  -0.000000
   10        4.678226      7.448882   1.000000  -0.000000
   11        5.515301      7.792438   0.515625  -0.000000
   12        9.491087     10.740078  -0.000000  -0.000000
   13       14.647947     15.613255   0.000000   0.000000
   14       18.365873     19.027879   0.000000   0.000000
   15       21.154475     21.814942   0.000000   0.000000
   16       23.438147     24.014655   0.000000   0.000000
   17       24.894220     25.283598   0.000000   0.000000
   18       27.371498     27.789325   0.000000   0.000000
   19       28.095177     28.554214   0.000000   0.000000
   20       30.240874     30.673992   0.000000   0.000000
   21       33.218345     33.857394   0.000000   0.000000
   22       33.401154     33.995969   0.000000   0.000000
   23       34.826642     35.239568   0.000000   0.000000
   24       36.686360     37.233117   0.000000   0.000000
   25       41.260059     41.749104   0.000000   0.000000
   26       41.562293     41.825303   0.000000   0.000000
   27       41.957679     42.424259   0.000000   0.000000
   28       46.672067     47.090902   0.000000   0.000000
   29       47.200576     48.100660   0.000000   0.000000
   30       47.775003     48.258941   0.000000   0.000000
   31       50.038848     50.676624   0.000000   0.000000
   32       52.462766     53.251329   0.000000   0.000000
 
  0.4375000E+00  0.1875000E+00  0.6250000E-01  0.3906250E-02
    1        0.730068      1.297228   1.000000   1.000000
    2        1.404979      2.498999   1.000000   1.000000
    3        2.421460      4.297818   1.000000   1.000000
    4        2.742845      4.636257   1.000000   1.000000
    5        3.002818      4.817589   1.000000   1.000004
    6        3.152258      5.022395   1.000000   1.001249
    7        4.086683      6.325770   1.000000  -0.000000
    8        4.113562      6.418638   1.000000  -0.000000
    9        4.856706      7.142802   1.000015  -0.000000
   10        5.232994      7.505136   1.030625  -0.000000
   11        5.371698      7.819075   0.971969  -0.000000
   12        6.969134      8.804591  -0.000000  -0.000000
   13       16.464805     17.386276   0.000000   0.000000
   14       18.640401     19.453801   0.000000   0.000000
   15       20.314491     20.980160   0.000000   0.000000
   16       22.522024     23.091109   0.000000   0.000000
   17       24.491979     24.953660   0.000000   0.000000
   18       26.113330     26.526319   0.000000   0.000000
   19       28.760650     29.170895   0.000000   0.000000
   20       30.110427     30.549083   0.000000   0.000000
   21       32.662251     33.124844   0.000000   0.000000
   22       33.842288     34.329953   0.000000   0.000000
   23       36.174205     36.612363   0.000000   0.000000
   24       37.608997     38.147007   0.000000   0.000000
   25       40.043981     40.701439   0.000000   0.000000
   26       43.258531     43.671461   0.000000   0.000000
   27       44.325897     44.867030   0.000000   0.000000
   28       45.484061     45.919556   0.000000   0.000000
   29       47.647796     48.046446   0.000000   0.000000
   30       49.227478     49.909425   0.000000   0.000000
   31       51.193948     51.839447   0.000000   0.000000
   32       52.186643     52.977956   0.000000   0.000000
 
 -0.4375000E+00  0.1875000E+00  0.6250000E-01  0.3906250E-02
    1        0.730068      1.297228   1.000000   1.000000
    2        1.404979      2.498999   1.000000   1.000000
    3        2.421460      4.297818   1.000000   1.000000
    4        2.742845      4.636257   1.000000   1.000000
    5        3.002818      4.817589   1.000000   1.000004
    6        3.152258      5.022395   1.000000   1.001249
    7        4.086683      6.325770   1.000000  -0.000000
    8        4.113562      6.418638   1.000000  -0.000000
    9        4.856706      7.142802   1.000015  -0.000000
   10        5.232994      7.505136   1.030625  -0.000000
   11        5.371698      7.819075   0.971969  -0.000000
   12        6.969134      8.804591  -0.000000  -0.000000
   13       16.464805     17.386276   0.000000   0.000000
   14       18.640401     19.453801   0.000000   0.000000
   15       20.314491     20.980160   0.000000   0.000000
   16       22.522024     23.091109   0.000000   0.000000
   17       24.491979     24.953660   0.000000   0.000000
   18       26.113330     26.526319   0.000000   0.000000
   19       28.760650     29.170895   0.000000   0.000000
   20       30.110427     30.549083   0.000000   0.000000
   21       32.662251     33.124844   0.000000   0.000000
   22       33.842288     34.329953   0.000000   0.000000
   23       36.174205     36.612363   0.000000   0.000000
   24       37.608997     38.147007   0.000000   0.000000
   25       40.043981     40.701439   0.000000   0.000000
   26       43.258531     43.671461   0.000000   0.000000
   27       44.325897     44.867030   0.000000   0.000000
   28       45.484061     45.919556   0.000000   0.000000
   29       47.647796     48.046446   0.000000   0.000000
   30       49.227478     49.909425   0.000000   0.000000
   31       51.193948     51.839447   0.000000   0.000000
   32       52.186643     52.977956   0.000000   0.000000
 
 -0.3125000E+00  0.1875000E+00  0.6250000E-01  0.3906250E-02
    1       -0.332963     -0.039220   1.000000   1.000000
    2        1.546049      3.167302   1.000000   1.000000
    3        1.957012      3.775437   1.000000   1.000000
    4        2.795180      4.684793   1.000000   1.000000
    5        3.043980      4.900415   1.000000   1.000055
    6        3.507764      5.418599   1.000000   0.871183
    7        4.150834      6.445455   1.000000  -0.000000
    8        4.334102      6.640685   1.000000  -0.000000
    9        4.525857      6.711318   1.000000  -0.000000
   10        4.678226      7.448882   1.000000  -0.000000
   11        5.515301      7.792439   0.515626  -0.000000
   12        9.491087     10.740078  -0.000000  -0.000000
   13       14.647947     15.613255   0.000000   0.000000
   14       18.365873     19.027879   0.000000   0.000000
   15       21.154475     21.814942   0.000000   0.000000
   16       23.438147     24.014655   0.000000   0.000000
   17       24.894220     25.283598   0.000000   0.000000
   18       27.371498     27.789325   0.000000   0.000000
   19       28.095177     28.554214   0.000000   0.000000
   20       30.240874     30.673992   0.000000   0.000000
   21       33.218345     33.857394   0.000000   0.000000
   22       33.401154     33.995969   0.000000   0.000000
   23       34.826642     35.239568   0.000000   0.000000
   24       36.686360     37.233117   0.000000   0.000000
   25       41.260059     41.749104   0.000000   0.000000
   26       41.562293     41.825303   0.000000   0.000000
   27       41.957679     42.424259   0.000000   0.000000
   28       46.672067     47.090902   0.000000   0.000000
   29       47.200576     48.100660   0.000000   0.000000
   30       47.775003     48.258941   0.000000   0.000000
   31       50.038848     50.676624   0.000000   0.000000
   32       52.462766     53.251329   0.000000   0.000000
 
 -0.1875000E+00  0.1875000E+00  0.6250000E-01  0.3906250E-02
    1       -1.330732     -1.115408   1.000000   1.000000
    2        1.367286      3.222459   1.000000   1.000000
    3        1.502550      3.304863   1.000000   1.000000
    4        2.919404      4.844241   1.000000   1.000010
    5        3.104367      5.034578   1.000000   1.001629
    6        4.064271      6.034365   1.000000  -0.000816
    7        4.076860      6.137434   1.000000  -0.000055
    8        4.290817      6.893202   1.000000  -0.000000
    9        4.488943      6.959629   1.000000  -0.000000
   10        4.788432      7.260346   1.000002  -0.000000
   11        5.590715      7.875489   0.217076  -0.000000
   12       12.121190     13.000225   0.000000   0.000000
   13       13.659884     14.566407   0.000000   0.000000
   14       16.851137     17.454671   0.000000   0.000000
   15       22.798194     23.489240   0.000000   0.000000
   16       23.961666     24.430307   0.000000   0.000000
   17       25.563861     26.041613   0.000000   0.000000
   18       26.839020     27.043805   0.000000   0.000000
   19       29.801234     30.333630   0.000000   0.000000
   20       29.902049     30.621408   0.000000   0.000000
   21       30.335484     30.885092   0.000000   0.000000
   22       34.185444     34.865593   0.000000   0.000000
   23       35.011204     35.290616   0.000000   0.000000
   24       38.226416     38.555824   0.000000   0.000000
   25       38.965748     39.414922   0.000000   0.000000
   26       40.064848     40.566761   0.000000   0.000000
   27       43.998594     44.537191   0.000000   0.000000
   28       44.039238     44.737760   0.000000   0.000000
   29       44.838316     45.581748   0.000000   0.000000
   30       46.464053     47.040924   0.000000   0.000000
   31       49.435713     50.007727   0.000000   0.000000
   32       51.808930     52.502166   0.000000   0.000000
 
 -0.6250000E-01  0.1875000E+00  0.6250000E-01  0.3906250E-02
    1       -1.900652     -1.701431   1.000000   1.000000
    2        1.206055      2.991138   1.000000   1.000000
    3        1.211519      3.121670   1.000000   1.000000
    4        3.140960      5.101919   1.000000   1.006009
    5        3.201333      5.170604   1.000000   1.016758
    6        3.665750      5.702938   1.000000  -0.014665
    7        4.206217      6.768591   1.000000  -0.000000
    8        4.549793      6.886943   1.000000  -0.000000
    9        4.701080      7.229029   1.000000  -0.000000
   10        5.081301      7.336162   1.004151  -0.000000
   11        5.490758      7.761678   0.618171  -0.000000
   12       11.986354     12.795575   0.000000   0.000000
   13       15.844755     16.436567   0.000000   0.000000
   14       16.109135     16.639744   0.000000   0.000000
   15       21.927849     22.744872   0.000000   0.000000
   16       23.346658     24.030708   0.000000   0.000000