Automatically generated mesh
     256
Reciprocal lattice
    0.06250000000000    0.06250000000000    0.06250000000000             2
    0.18750000000000    0.06250000000000    0.06250000000000             2
    0.31250000000000    0.06250000000000    0.06250000000000             2
    0.43750000000000    0.06250000000000    0.06250000000000             2
   -0.43750000000000    0.06250000000000    0.06250000000000             2
   -0.31250000000000    0.06250000000000    0.06250000000000             2
   -0.18750000000000    0.06250000000000    0.06250000000000             2
   -0.06250000000000    0.06250000000000    0.06250000000000             2
    0.06250000000000    0.18750000000000    0.06250000000000             2
    0.18750000000000    0.18750000000000    0.06250000000000             2
    0.31250000000000    0.18750000000000    0.06250000000000             2
    0.43750000000000    0.18750000000000    0.06250000000000             2
   -0.43750000000000    0.18750000000000    0.06250000000000             2
   -0.31250000000000    0.18750000000000    0.06250000000000             2
   -0.18750000000000    0.18750000000000    0.06250000000000             2
   -0.06250000000000    0.18750000000000    0.06250000000000             2
    0.06250000000000    0.31250000000000    0.06250000000000             2
    0.18750000000000    0.31250000000000    0.06250000000000             2
    0.31250000000000    0.31250000000000    0.06250000000000             2
    0.43750000000000    0.31250000000000    0.06250000000000             2
   -0.43750000000000    0.31250000000000    0.06250000000000             2
   -0.31250000000000    0.31250000000000    0.06250000000000             2
   -0.18750000000000    0.31250000000000    0.06250000000000             2
   -0.06250000000000    0.31250000000000    0.06250000000000             2
    0.06250000000000    0.43750000000000    0.06250000000000             2
    0.18750000000000    0.43750000000000    0.06250000000000             2
    0.31250000000000    0.43750000000000    0.06250000000000             2
    0.43750000000000    0.43750000000000    0.06250000000000             2
   -0.43750000000000    0.43750000000000    0.06250000000000             2
   -0.31250000000000    0.43750000000000    0.06250000000000             2
   -0.18750000000000    0.43750000000000    0.06250000000000             2
   -0.06250000000000    0.43750000000000    0.06250000000000             2
    0.06250000000000   -0.43750000000000    0.06250000000000             2
    0.18750000000000   -0.43750000000000    0.06250000000000             2
    0.31250000000000   -0.43750000000000    0.06250000000000             2
    0.43750000000000   -0.43750000000000    0.06250000000000             2
   -0.43750000000000   -0.43750000000000    0.06250000000000             2
   -0.31250000000000   -0.43750000000000    0.06250000000000             2
   -0.18750000000000   -0.43750000000000    0.06250000000000             2
   -0.06250000000000   -0.43750000000000    0.06250000000000             2
    0.06250000000000   -0.31250000000000    0.06250000000000             2
    0.18750000000000   -0.31250000000000    0.06250000000000             2
    0.31250000000000   -0.31250000000000    0.06250000000000             2
    0.43750000000000   -0.31250000000000    0.06250000000000             2
   -0.43750000000000   -0.31250000000000    0.06250000000000             2
   -0.31250000000000   -0.31250000000000    0.06250000000000             2
   -0.18750000000000   -0.31250000000000    0.06250000000000             2
   -0.06250000000000   -0.31250000000000    0.06250000000000             2
    0.06250000000000   -0.18750000000000    0.06250000000000             2
    0.18750000000000   -0.18750000000000    0.06250000000000             2
    0.31250000000000   -0.18750000000000    0.06250000000000             2
    0.43750000000000   -0.18750000000000    0.06250000000000             2
   -0.43750000000000   -0.18750000000000    0.06250000000000             2
   -0.31250000000000   -0.18750000000000    0.06250000000000             2
   -0.18750000000000   -0.18750000000000    0.06250000000000             2
   -0.06250000000000   -0.18750000000000    0.06250000000000             2
    0.06250000000000   -0.06250000000000    0.06250000000000             2
    0.18750000000000   -0.06250000000000    0.06250000000000             2
    0.31250000000000   -0.06250000000000    0.06250000000000             2
    0.43750000000000   -0.06250000000000    0.06250000000000             2
   -0.43750000000000   -0.06250000000000    0.06250000000000             2
   -0.31250000000000   -0.06250000000000    0.06250000000000             2
   -0.18750000000000   -0.06250000000000    0.06250000000000             2
   -0.06250000000000   -0.06250000000000    0.06250000000000             2
    0.06250000000000    0.06250000000000    0.18750000000000             2
    0.18750000000000    0.06250000000000    0.18750000000000             2
    0.31250000000000    0.06250000000000    0.18750000000000             2
    0.43750000000000    0.06250000000000    0.18750000000000             2
   -0.43750000000000    0.06250000000000    0.18750000000000             2
   -0.31250000000000    0.06250000000000    0.18750000000000             2
   -0.18750000000000    0.06250000000000    0.18750000000000             2
   -0.06250000000000    0.06250000000000    0.18750000000000             2
    0.06250000000000    0.18750000000000    0.18750000000000             2
    0.18750000000000    0.18750000000000    0.18750000000000             2
    0.31250000000000    0.18750000000000    0.18750000000000             2
    0.43750000000000    0.18750000000000    0.18750000000000             2
   -0.43750000000000    0.18750000000000    0.18750000000000             2
   -0.31250000000000    0.18750000000000    0.18750000000000             2
   -0.18750000000000    0.18750000000000    0.18750000000000             2
   -0.06250000000000    0.18750000000000    0.18750000000000             2
    0.06250000000000    0.31250000000000    0.18750000000000             2
    0.18750000000000    0.31250000000000    0.18750000000000             2
    0.31250000000000    0.31250000000000    0.18750000000000             2
    0.43750000000000    0.31250000000000    0.18750000000000             2
   -0.43750000000000    0.31250000000000    0.18750000000000             2
   -0.31250000000000    0.31250000000000    0.18750000000000             2
   -0.18750000000000    0.31250000000000    0.18750000000000             2
   -0.06250000000000    0.31250000000000    0.18750000000000             2
    0.06250000000000    0.43750000000000    0.18750000000000             2
    0.18750000000000    0.43750000000000    0.18750000000000             2
    0.31250000000000    0.43750000000000    0.18750000000000             2
    0.43750000000000    0.43750000000000    0.18750000000000             2
   -0.43750000000000    0.43750000000000    0.18750000000000             2
   -0.31250000000000    0.43750000000000    0.18750000000000             2
   -0.18750000000000    0.43750000000000    0.18750000000000             2
   -0.06250000000000    0.43750000000000    0.18750000000000             2
    0.06250000000000   -0.43750000000000    0.18750000000000             2
    0.18750000000000   -0.43750000000000    0.18750000000000             2
    0.31250000000000   -0.43750000000000    0.18750000000000             2
    0.43750000000000   -0.43750000000000    0.18750000000000             2
   -0.43750000000000   -0.43750000000000    0.18750000000000             2
   -0.31250000000000   -0.43750000000000    0.18750000000000             2
   -0.18750000000000   -0.43750000000000    0.18750000000000             2
   -0.06250000000000   -0.43750000000000    0.18750000000000             2
    0.06250000000000   -0.31250000000000    0.18750000000000             2
    0.18750000000000   -0.31250000000000    0.18750000000000             2
    0.31250000000000   -0.31250000000000    0.18750000000000             2
    0.43750000000000   -0.31250000000000    0.18750000000000             2
   -0.43750000000000   -0.31250000000000    0.18750000000000             2
   -0.31250000000000   -0.31250000000000    0.18750000000000             2
   -0.18750000000000   -0.31250000000000    0.18750000000000             2
   -0.06250000000000   -0.31250000000000    0.18750000000000             2
    0.06250000000000   -0.18750000000000    0.18750000000000             2
    0.18750000000000   -0.18750000000000    0.18750000000000             2
    0.31250000000000   -0.18750000000000    0.18750000000000             2
    0.43750000000000   -0.18750000000000    0.18750000000000             2
   -0.43750000000000   -0.18750000000000    0.18750000000000             2
   -0.31250000000000   -0.18750000000000    0.18750000000000             2
   -0.18750000000000   -0.18750000000000    0.18750000000000             2
   -0.06250000000000   -0.18750000000000    0.18750000000000             2
    0.06250000000000   -0.06250000000000    0.18750000000000             2
    0.18750000000000   -0.06250000000000    0.18750000000000             2
    0.31250000000000   -0.06250000000000    0.18750000000000             2
    0.43750000000000   -0.06250000000000    0.18750000000000             2
   -0.43750000000000   -0.06250000000000    0.18750000000000             2
   -0.31250000000000   -0.06250000000000    0.18750000000000             2
   -0.18750000000000   -0.06250000000000    0.18750000000000             2
   -0.06250000000000   -0.06250000000000    0.18750000000000             2
    0.06250000000000    0.06250000000000    0.31250000000000             2
    0.18750000000000    0.06250000000000    0.31250000000000             2
    0.31250000000000    0.06250000000000    0.31250000000000             2
    0.43750000000000    0.06250000000000    0.31250000000000             2
   -0.43750000000000    0.06250000000000    0.31250000000000             2
   -0.31250000000000    0.06250000000000    0.31250000000000             2
   -0.18750000000000    0.06250000000000    0.31250000000000             2
   -0.06250000000000    0.06250000000000    0.31250000000000             2
    0.06250000000000    0.18750000000000    0.31250000000000             2
    0.18750000000000    0.18750000000000    0.31250000000000             2
    0.31250000000000    0.18750000000000    0.31250000000000             2
    0.43750000000000    0.18750000000000    0.31250000000000             2
   -0.43750000000000    0.18750000000000    0.31250000000000             2
   -0.31250000000000    0.18750000000000    0.31250000000000             2
   -0.18750000000000    0.18750000000000    0.31250000000000             2
   -0.06250000000000    0.18750000000000    0.31250000000000             2
    0.06250000000000    0.31250000000000    0.31250000000000             2
    0.18750000000000    0.31250000000000    0.31250000000000             2
    0.31250000000000    0.31250000000000    0.31250000000000             2
    0.43750000000000    0.31250000000000    0.31250000000000             2
   -0.43750000000000    0.31250000000000    0.31250000000000             2
   -0.31250000000000    0.31250000000000    0.31250000000000             2
   -0.18750000000000    0.31250000000000    0.31250000000000             2
   -0.06250000000000    0.31250000000000    0.31250000000000             2
    0.06250000000000    0.43750000000000    0.31250000000000             2
    0.18750000000000    0.43750000000000    0.31250000000000             2
    0.31250000000000    0.43750000000000    0.31250000000000             2
    0.43750000000000    0.43750000000000    0.31250000000000             2
   -0.43750000000000    0.43750000000000    0.31250000000000             2
   -0.31250000000000    0.43750000000000    0.31250000000000             2
   -0.18750000000000    0.43750000000000    0.31250000000000             2
   -0.06250000000000    0.43750000000000    0.31250000000000             2
    0.06250000000000   -0.43750000000000    0.31250000000000             2
    0.18750000000000   -0.43750000000000    0.31250000000000             2
    0.31250000000000   -0.43750000000000    0.31250000000000             2
    0.43750000000000   -0.43750000000000    0.31250000000000             2
   -0.43750000000000   -0.43750000000000    0.31250000000000             2
   -0.31250000000000   -0.43750000000000    0.31250000000000             2
   -0.18750000000000   -0.43750000000000    0.31250000000000             2
   -0.06250000000000   -0.43750000000000    0.31250000000000             2
    0.06250000000000   -0.31250000000000    0.31250000000000             2
    0.18750000000000   -0.31250000000000    0.31250000000000             2
    0.31250000000000   -0.31250000000000    0.31250000000000             2
    0.43750000000000   -0.31250000000000    0.31250000000000             2
   -0.43750000000000   -0.31250000000000    0.31250000000000             2
   -0.31250000000000   -0.31250000000000    0.31250000000000             2
   -0.18750000000000   -0.31250000000000    0.31250000000000             2
   -0.06250000000000   -0.31250000000000    0.31250000000000             2
    0.06250000000000   -0.18750000000000    0.31250000000000             2
    0.18750000000000   -0.18750000000000    0.31250000000000             2
    0.31250000000000   -0.18750000000000    0.31250000000000             2
    0.43750000000000   -0.18750000000000    0.31250000000000             2
   -0.43750000000000   -0.18750000000000    0.31250000000000             2
   -0.31250000000000   -0.18750000000000    0.31250000000000             2
   -0.18750000000000   -0.18750000000000    0.31250000000000             2
   -0.06250000000000   -0.18750000000000    0.31250000000000             2
    0.06250000000000   -0.06250000000000    0.31250000000000             2
    0.18750000000000   -0.06250000000000    0.31250000000000             2
    0.31250000000000   -0.06250000000000    0.31250000000000             2
    0.43750000000000   -0.06250000000000    0.31250000000000             2
   -0.43750000000000   -0.06250000000000    0.31250000000000             2
   -0.31250000000000   -0.06250000000000    0.31250000000000             2
   -0.18750000000000   -0.06250000000000    0.31250000000000             2
   -0.06250000000000   -0.06250000000000    0.31250000000000             2
    0.06250000000000    0.06250000000000    0.43750000000000             2
    0.18750000000000    0.06250000000000    0.43750000000000             2
    0.31250000000000    0.06250000000000    0.43750000000000             2
    0.43750000000000    0.06250000000000    0.43750000000000             2
   -0.43750000000000    0.06250000000000    0.43750000000000             2
   -0.31250000000000    0.06250000000000    0.43750000000000             2
   -0.18750000000000    0.06250000000000    0.43750000000000             2
   -0.06250000000000    0.06250000000000    0.43750000000000             2
    0.06250000000000    0.18750000000000    0.43750000000000             2
    0.18750000000000    0.18750000000000    0.43750000000000             2
    0.31250000000000    0.18750000000000    0.43750000000000             2
    0.43750000000000    0.18750000000000    0.43750000000000             2
   -0.43750000000000    0.18750000000000    0.43750000000000             2
   -0.31250000000000    0.18750000000000    0.43750000000000             2
   -0.18750000000000    0.18750000000000    0.43750000000000             2
   -0.06250000000000    0.18750000000000    0.43750000000000             2
    0.06250000000000    0.31250000000000    0.43750000000000             2
    0.18750000000000    0.31250000000000    0.43750000000000             2
    0.31250000000000    0.31250000000000    0.43750000000000             2
    0.43750000000000    0.31250000000000    0.43750000000000             2
   -0.43750000000000    0.31250000000000    0.43750000000000             2
   -0.31250000000000    0.31250000000000    0.43750000000000             2
   -0.18750000000000    0.31250000000000    0.43750000000000             2
   -0.06250000000000    0.31250000000000    0.43750000000000             2
    0.06250000000000    0.43750000000000    0.43750000000000             2
    0.18750000000000    0.43750000000000    0.43750000000000             2
    0.31250000000000    0.43750000000000    0.43750000000000             2
    0.43750000000000    0.43750000000000    0.43750000000000             2
   -0.43750000000000    0.43750000000000    0.43750000000000             2
   -0.31250000000000    0.43750000000000    0.43750000000000             2
   -0.18750000000000    0.43750000000000    0.43750000000000             2
   -0.06250000000000    0.43750000000000    0.43750000000000             2
    0.06250000000000   -0.43750000000000    0.43750000000000             2
    0.18750000000000   -0.43750000000000    0.43750000000000             2
    0.31250000000000   -0.43750000000000    0.43750000000000             2
    0.43750000000000   -0.43750000000000    0.43750000000000             2
   -0.43750000000000   -0.43750000000000    0.43750000000000             2
   -0.31250000000000   -0.43750000000000    0.43750000000000             2
   -0.18750000000000   -0.43750000000000    0.43750000000000             2
   -0.06250000000000   -0.43750000000000    0.43750000000000             2
    0.06250000000000   -0.31250000000000    0.43750000000000             2
    0.18750000000000   -0.31250000000000    0.43750000000000             2
    0.31250000000000   -0.31250000000000    0.43750000000000             2
    0.43750000000000   -0.31250000000000    0.43750000000000             2
   -0.43750000000000   -0.31250000000000    0.43750000000000             2
   -0.31250000000000   -0.31250000000000    0.43750000000000             2
   -0.18750000000000   -0.31250000000000    0.43750000000000             2
   -0.06250000000000   -0.31250000000000    0.43750000000000             2
    0.06250000000000   -0.18750000000000    0.43750000000000             2
    0.18750000000000   -0.18750000000000    0.43750000000000             2
    0.31250000000000   -0.18750000000000    0.43750000000000             2
    0.43750000000000   -0.18750000000000    0.43750000000000             2
   -0.43750000000000   -0.18750000000000    0.43750000000000             2
   -0.31250000000000   -0.18750000000000    0.43750000000000             2
   -0.18750000000000   -0.18750000000000    0.43750000000000             2
   -0.06250000000000   -0.18750000000000    0.43750000000000             2
    0.06250000000000   -0.06250000000000    0.43750000000000             2
    0.18750000000000   -0.06250000000000    0.43750000000000             2
    0.31250000000000   -0.06250000000000    0.43750000000000             2
    0.43750000000000   -0.06250000000000    0.43750000000000             2
   -0.43750000000000   -0.06250000000000    0.43750000000000             2
   -0.31250000000000   -0.06250000000000    0.43750000000000             2
   -0.18750000000000   -0.06250000000000    0.43750000000000             2
   -0.06250000000000   -0.06250000000000    0.43750000000000             2
