       N       E                     dE             d eps       ncg     rms          rms(c)
DAV:   1    -0.472685314037E+01   -0.47269E+01   -0.80401E+03 32896   0.580E+02
DAV:   2    -0.184676195276E+02   -0.13741E+02   -0.13518E+02 45248   0.451E+01
DAV:   3    -0.184836264238E+02   -0.16007E-01   -0.15996E-01 35648   0.181E+00
DAV:   4    -0.184836397925E+02   -0.13369E-04   -0.13368E-04 59328   0.311E-02
DAV:   5    -0.184836397930E+02   -0.56230E-09   -0.79952E-09 36608   0.623E-05    0.158E+01
DAV:   6    -0.164212741446E+02    0.20624E+01   -0.33459E+01 43200   0.348E+01    0.101E+01
DAV:   7    -0.164261875925E+02   -0.49134E-02   -0.27805E+00 38784   0.896E+00    0.452E+00
DAV:   8    -0.164706374139E+02   -0.44450E-01   -0.13040E-01 49888   0.129E+00    0.263E+00
DAV:   9    -0.164603631206E+02    0.10274E-01   -0.22987E-02 48000   0.630E-01    0.133E+00
DAV:  10    -0.164609998868E+02   -0.63677E-03   -0.40029E-02 46368   0.890E-01    0.960E-01
DAV:  11    -0.164618954544E+02   -0.89557E-03   -0.19384E-02 45536   0.656E-01    0.582E-02
DAV:  12    -0.164619181231E+02   -0.22669E-04   -0.83666E-05 35616   0.359E-02    0.216E-02
DAV:  13    -0.164619239973E+02   -0.58742E-05   -0.43062E-05 35552   0.416E-02
   1 F= -.16461924E+02 E0= -.16460490E+02  d E =-.164619E+02  mag=     4.5354
