       N       E                     dE             d eps       ncg     rms          rms(c)
DAV:   1    -0.261074414596E+01   -0.26107E+01   -0.85188E+03 32768   0.628E+02
DAV:   2    -0.184649018519E+02   -0.15854E+02   -0.15631E+02 45504   0.487E+01
DAV:   3    -0.184840470116E+02   -0.19145E-01   -0.19127E-01 35008   0.203E+00
DAV:   4    -0.184840656260E+02   -0.18614E-04   -0.18614E-04 59872   0.380E-02
DAV:   5    -0.184840656254E+02    0.58503E-09   -0.63965E-10 35616   0.514E-05    0.158E+01
DAV:   6    -0.164319436809E+02    0.20521E+01   -0.33466E+01 44896   0.348E+01    0.101E+01
DAV:   7    -0.164285290563E+02    0.34146E-02   -0.27758E+00 40384   0.897E+00    0.452E+00
DAV:   8    -0.164720479788E+02   -0.43519E-01   -0.12945E-01 50240   0.128E+00    0.262E+00
DAV:   9    -0.164617093800E+02    0.10339E-01   -0.23091E-02 48160   0.629E-01    0.133E+00
DAV:  10    -0.164620061395E+02   -0.29676E-03   -0.39474E-02 46208   0.877E-01    0.949E-01
DAV:  11    -0.164627324976E+02   -0.72636E-03   -0.19209E-02 45888   0.660E-01    0.570E-02
DAV:  12    -0.164627538186E+02   -0.21321E-04   -0.78925E-05 34976   0.319E-02    0.205E-02
DAV:  13    -0.164627575702E+02   -0.37517E-05   -0.14116E-05 37536   0.242E-02
   1 F= -.16462758E+02 E0= -.16461325E+02  d E =-.164628E+02  mag=     4.5353
