       N       E                     dE             d eps       ncg     rms          rms(c)
DAV:   1     0.155280816289E+01    0.15528E+01   -0.94880E+03 32768   0.723E+02
DAV:   2    -0.184614008139E+02   -0.20014E+02   -0.19747E+02 45888   0.550E+01
DAV:   3    -0.184840915083E+02   -0.22691E-01   -0.22665E-01 35232   0.228E+00
DAV:   4    -0.184841093927E+02   -0.17884E-04   -0.17885E-04 59840   0.396E-02
DAV:   5    -0.184841093926E+02    0.13119E-09   -0.85565E-10 36032   0.622E-05    0.158E+01
DAV:   6    -0.164312786597E+02    0.20528E+01   -0.33485E+01 44192   0.352E+01    0.101E+01
DAV:   7    -0.164275703027E+02    0.37084E-02   -0.27788E+00 40544   0.907E+00    0.452E+00
DAV:   8    -0.164711543890E+02   -0.43584E-01   -0.12955E-01 50752   0.129E+00    0.262E+00
DAV:   9    -0.164608289266E+02    0.10325E-01   -0.23144E-02 47872   0.635E-01    0.133E+00
DAV:  10    -0.164611087851E+02   -0.27986E-03   -0.39433E-02 46784   0.885E-01    0.949E-01
DAV:  11    -0.164618464049E+02   -0.73762E-03   -0.19182E-02 46400   0.666E-01    0.569E-02
DAV:  12    -0.164618677289E+02   -0.21324E-04   -0.80525E-05 35616   0.340E-02    0.211E-02
DAV:  13    -0.164618732532E+02   -0.55243E-05   -0.45553E-05 35456   0.431E-02
   1 F= -.16461873E+02 E0= -.16460441E+02  d E =-.164619E+02  mag=     4.5352
