       N       E                     dE             d eps       ncg     rms          rms(c)
DAV:   1    -0.912144001694E+01   -0.91214E+01   -0.69176E+03 33344   0.478E+02
DAV:   2    -0.184695980806E+02   -0.93482E+01   -0.91906E+01 44064   0.369E+01
DAV:   3    -0.184811664870E+02   -0.11568E-01   -0.11561E-01 37856   0.137E+00
DAV:   4    -0.184811757429E+02   -0.92559E-05   -0.92554E-05 56864   0.222E-02
DAV:   5    -0.184811757428E+02    0.16598E-09   -0.47389E-09 38656   0.492E-05    0.157E+01
DAV:   6    -0.164281927833E+02    0.20530E+01   -0.33264E+01 44704   0.342E+01    0.101E+01
DAV:   7    -0.164358156005E+02   -0.76228E-02   -0.27590E+00 39584   0.879E+00    0.453E+00
DAV:   8    -0.164798417973E+02   -0.44026E-01   -0.13194E-01 49248   0.127E+00    0.265E+00
DAV:   9    -0.164693631097E+02    0.10479E-01   -0.22652E-02 48320   0.614E-01    0.134E+00
DAV:  10    -0.164701202060E+02   -0.75710E-03   -0.40247E-02 46784   0.872E-01    0.955E-01
DAV:  11    -0.164709698991E+02   -0.84969E-03   -0.19331E-02 46432   0.645E-01    0.584E-02
DAV:  12    -0.164709922629E+02   -0.22364E-04   -0.78270E-05 35424   0.313E-02    0.201E-02
DAV:  13    -0.164709977081E+02   -0.54452E-05   -0.13438E-05 35296   0.232E-02
   1 F= -.16470998E+02 E0= -.16469546E+02  d E =-.164710E+02  mag=     4.5333
