       N       E                     dE             d eps       ncg     rms          rms(c)
DAV:   1    -0.118781308183E+02   -0.11878E+02   -0.62936E+03 34816   0.414E+02
DAV:   2    -0.184717205269E+02   -0.65936E+01   -0.64294E+01 42816   0.304E+01
DAV:   3    -0.184799937699E+02   -0.82732E-02   -0.82700E-02 41120   0.110E+00
DAV:   4    -0.184799985321E+02   -0.47621E-05   -0.47610E-05 53216   0.138E-02
DAV:   5    -0.184799985313E+02    0.73237E-09   -0.16392E-10 42304   0.227E-05    0.156E+01
DAV:   6    -0.164300446096E+02    0.20500E+01   -0.32947E+01 44672   0.324E+01    0.997E+00
DAV:   7    -0.164453030907E+02   -0.15258E-01   -0.26952E+00 40064   0.826E+00    0.447E+00
DAV:   8    -0.164887044514E+02   -0.43401E-01   -0.13401E-01 50400   0.124E+00    0.265E+00
DAV:   9    -0.164782561920E+02    0.10448E-01   -0.21552E-02 48640   0.578E-01    0.134E+00
DAV:  10    -0.164789233947E+02   -0.66720E-03   -0.39841E-02 45888   0.821E-01    0.928E-01
DAV:  11    -0.164798226585E+02   -0.89926E-03   -0.19032E-02 46720   0.606E-01    0.572E-02
DAV:  12    -0.164798453617E+02   -0.22703E-04   -0.79634E-05 34624   0.325E-02    0.209E-02
DAV:  13    -0.164798514397E+02   -0.60780E-05   -0.42503E-05 30912   0.386E-02
   1 F= -.16479851E+02 E0= -.16478396E+02  d E =-.164799E+02  mag=     4.5318
