       N       E                     dE             d eps       ncg     rms          rms(c)
DAV:   1    -0.689965590961E+01   -0.68997E+01   -0.74591E+03 33088   0.529E+02
DAV:   2    -0.184668441362E+02   -0.11567E+02   -0.11379E+02 44512   0.413E+01
DAV:   3    -0.184820973530E+02   -0.15253E-01   -0.15244E-01 36352   0.166E+00
DAV:   4    -0.184821106609E+02   -0.13308E-04   -0.13308E-04 58304   0.294E-02
DAV:   5    -0.184821106613E+02   -0.41337E-09   -0.58493E-10 37312   0.486E-05    0.158E+01
DAV:   6    -0.164210962415E+02    0.20610E+01   -0.33425E+01 44064   0.347E+01    0.101E+01
DAV:   7    -0.164266043120E+02   -0.55081E-02   -0.27776E+00 39520   0.894E+00    0.452E+00
DAV:   8    -0.164710537055E+02   -0.44449E-01   -0.13071E-01 49568   0.129E+00    0.263E+00
DAV:   9    -0.164607231515E+02    0.10331E-01   -0.22960E-02 48256   0.626E-01    0.133E+00
DAV:  10    -0.164613914562E+02   -0.66830E-03   -0.40153E-02 46784   0.888E-01    0.961E-01
DAV:  11    -0.164622775484E+02   -0.88609E-03   -0.19432E-02 46592   0.656E-01    0.584E-02
DAV:  12    -0.164623001003E+02   -0.22552E-04   -0.80049E-05 34848   0.323E-02    0.203E-02
DAV:  13    -0.164623062764E+02   -0.61760E-05   -0.20925E-05 36800   0.292E-02
   1 F= -.16462306E+02 E0= -.16460870E+02  d E =-.164623E+02  mag=     4.5350
