 vasp.5.4.1 24Jun15 (build May 02 2016 14:41:14) complex                        
  
 executed on           IFC91_ompi date 2025.11.12  11:52:20
 running on   32 total cores
 distrk:  each k-point on   32 cores,    1 groups
 distr:  one band on NCORES_PER_BAND=   1 cores,   32 groups


--------------------------------------------------------------------------------------------------------


 INCAR:
 POTCAR:    PAW_PBE Fe 06Sep2000                  

 ----------------------------------------------------------------------------- 
|                                                                             |
|           W    W    AA    RRRRR   N    N  II  N    N   GGGG   !!!           |
|           W    W   A  A   R    R  NN   N  II  NN   N  G    G  !!!           |
|           W    W  A    A  R    R  N N  N  II  N N  N  G       !!!           |
|           W WW W  AAAAAA  RRRRR   N  N N  II  N  N N  G  GGG   !            |
|           WW  WW  A    A  R   R   N   NN  II  N   NN  G    G                |
|           W    W  A    A  R    R  N    N  II  N    N   GGGG   !!!           |
|                                                                             |
|      For optimal performance we recommend to set                            |
|        NCORE= 4 - approx SQRT( number of cores)                             |
|      NCORE specifies how many cores store one orbital (NPAR=cpu/NCORE).     |
|      This setting can  greatly improve the performance of VASP for DFT.     |
|      The default, NPAR=number of cores might be grossly inefficient         |
|      on modern multi-core architectures or massively parallel machines.     |
|      Do your own testing !!!!                                               |
|      Unfortunately you need to use the default for GW and RPA calculations. |
|      (for HF NCORE is supported but not extensively tested yet)             |
|                                                                             |
 ----------------------------------------------------------------------------- 

 POTCAR:    PAW_PBE Fe 06Sep2000                  
   VRHFIN =Fe:  d7 s1                                                           
   LEXCH  = PE                                                                  
   EATOM  =   594.3153 eV,   43.6809 Ry                                         
                                                                                
   TITEL  = PAW_PBE Fe 06Sep2000                                                
   LULTRA =        F    use ultrasoft PP ?                                      
   IUNSCR =        1    unscreen: 0-lin 1-nonlin 2-no                           
   RPACOR =    2.000    partial core radius                                     
   POMASS =   55.847; ZVAL   =    8.000    mass and valenz                      
   RCORE  =    2.300    outmost cutoff radius                                   
   RWIGS  =    2.460; RWIGS  =    1.302    wigner-seitz radius (au A)           
   ENMAX  =  267.882; ENMIN  =  200.911 eV                                      
   RCLOC  =    1.701    cutoff for local pot                                    
   LCOR   =        T    correct aug charges                                     
   LPAW   =        T    paw PP                                                  
   EAUG   =  511.368                                                            
   DEXC   =    0.000                                                            
   RMAX   =    2.356    core radius for proj-oper                               
   RAUG   =    1.300    factor for augmentation sphere                          
   RDEP   =    2.442    radius for radial grids                                 
   RDEPT  =    1.890    core radius for aug-charge                              
                                                                                
   Atomic configuration                                                         
    9 entries                                                                   
     n  l   j            E        occ.                                          
     1  0  0.50     -6993.8440   2.0000                                         
     2  0  0.50      -814.6047   2.0000                                         
     2  1  1.50      -693.3689   6.0000                                         
     3  0  0.50       -89.4732   2.0000                                         
     3  1  1.50       -55.6373   6.0000                                         
     3  2  2.50        -3.8151   7.0000                                         
     4  0  0.50        -4.2551   1.0000                                         
     4  1  1.50        -3.4015   0.0000                                         
     4  3  2.50        -1.3606   0.0000                                         
   Description                                                                  
     l       E           TYP  RCUT    TYP  RCUT                                 
     2     -3.8151135     23  2.300                                             
     2     -5.1756961     23  2.300                                             
     0     -4.2550963     23  2.300                                             
     0      7.2035603     23  2.300                                             
     1     -2.7211652     23  2.300                                             
     1     18.4316424     23  2.300                                             
  local pseudopotential read in
  partial core-charges read in
  partial kinetic energy density read in
  atomic valenz-charges read in
  non local Contribution for L=           2  read in
    real space projection operators read in
  non local Contribution for L=           2  read in
    real space projection operators read in
  non local Contribution for L=           0  read in
    real space projection operators read in
  non local Contribution for L=           0  read in
    real space projection operators read in
  non local Contribution for L=           1  read in
    real space projection operators read in
  non local Contribution for L=           1  read in
    real space projection operators read in
    PAW grid and wavefunctions read in
 
   number of l-projection  operators is LMAX  =           6
   number of lm-projection operators is LMMAX =          18
 
  PAW_PBE Fe 06Sep2000                  :
 energy of atom  1       EATOM= -594.3153
 kinetic energy error for atom=    0.0269 (will be added to EATOM!!)
 
 
 POSCAR: BCC Fe                                  
  positions in cartesian coordinates
  No initial velocities read in
 exchange correlation table for  LEXCH =        8
   RHO(1)=    0.500       N(1)  =     2000
   RHO(2)=  100.500       N(2)  =     4000
 


--------------------------------------------------------------------------------------------------------


 ion  position               nearest neighbor table
   1  0.000  0.000  0.000-   2 2.48   2 2.48   2 2.48   2 2.48   2 2.48   2 2.48   2 2.48   2 2.48

   2  0.500  0.500  0.500-   1 2.48   1 2.48   1 2.48   1 2.48   1 2.48   1 2.48   1 2.48   1 2.48

 

IMPORTANT INFORMATION: All symmetrisations will be switched off!
NOSYMM: (Re-)initialisation of all symmetry stuff for point group C_1.

 
 
 KPOINTS: Automatic mesh                          

Automatic generation of k-mesh.
Space group operators:
 irot       det(A)        alpha          n_x          n_y          n_z        tau_x        tau_y        tau_z
    1     1.000000     0.000001     1.000000     0.000000     0.000000     0.000000     0.000000     0.000000
 
 Subroutine IBZKPT returns following result:
 ===========================================
 
 Found    256 irreducible k-points:
 
 Following reciprocal coordinates:
            Coordinates               Weight
  0.062500  0.062500  0.062500      2.000000
  0.187500  0.062500  0.062500      2.000000
  0.312500  0.062500  0.062500      2.000000
  0.437500  0.062500  0.062500      2.000000
 -0.437500  0.062500  0.062500      2.000000
 -0.312500  0.062500  0.062500      2.000000
 -0.187500  0.062500  0.062500      2.000000
 -0.062500  0.062500  0.062500      2.000000
  0.062500  0.187500  0.062500      2.000000
  0.187500  0.187500  0.062500      2.000000
  0.312500  0.187500  0.062500      2.000000
  0.437500  0.187500  0.062500      2.000000
 -0.437500  0.187500  0.062500      2.000000
 -0.312500  0.187500  0.062500      2.000000
 -0.187500  0.187500  0.062500      2.000000
 -0.062500  0.187500  0.062500      2.000000
  0.062500  0.312500  0.062500      2.000000
  0.187500  0.312500  0.062500      2.000000
  0.312500  0.312500  0.062500      2.000000
  0.437500  0.312500  0.062500      2.000000
 -0.437500  0.312500  0.062500      2.000000
 -0.312500  0.312500  0.062500      2.000000
 -0.187500  0.312500  0.062500      2.000000
 -0.062500  0.312500  0.062500      2.000000
  0.062500  0.437500  0.062500      2.000000
  0.187500  0.437500  0.062500      2.000000
  0.312500  0.437500  0.062500      2.000000
  0.437500  0.437500  0.062500      2.000000
 -0.437500  0.437500  0.062500      2.000000
 -0.312500  0.437500  0.062500      2.000000
 -0.187500  0.437500  0.062500      2.000000
 -0.062500  0.437500  0.062500      2.000000
  0.062500 -0.437500  0.062500      2.000000
  0.187500 -0.437500  0.062500      2.000000
  0.312500 -0.437500  0.062500      2.000000
  0.437500 -0.437500  0.062500      2.000000
 -0.437500 -0.437500  0.062500      2.000000
 -0.312500 -0.437500  0.062500      2.000000
 -0.187500 -0.437500  0.062500      2.000000
 -0.062500 -0.437500  0.062500      2.000000
  0.062500 -0.312500  0.062500      2.000000
  0.187500 -0.312500  0.062500      2.000000
  0.312500 -0.312500  0.062500      2.000000
  0.437500 -0.312500  0.062500      2.000000
 -0.437500 -0.312500  0.062500      2.000000
 -0.312500 -0.312500  0.062500      2.000000
 -0.187500 -0.312500  0.062500      2.000000
 -0.062500 -0.312500  0.062500      2.000000
  0.062500 -0.187500  0.062500      2.000000
  0.187500 -0.187500  0.062500      2.000000
  0.312500 -0.187500  0.062500      2.000000
  0.437500 -0.187500  0.062500      2.000000
 -0.437500 -0.187500  0.062500      2.000000
 -0.312500 -0.187500  0.062500      2.000000
 -0.187500 -0.187500  0.062500      2.000000
 -0.062500 -0.187500  0.062500      2.000000
  0.062500 -0.062500  0.062500      2.000000
  0.187500 -0.062500  0.062500      2.000000
  0.312500 -0.062500  0.062500      2.000000
  0.437500 -0.062500  0.062500      2.000000
 -0.437500 -0.062500  0.062500      2.000000
 -0.312500 -0.062500  0.062500      2.000000
 -0.187500 -0.062500  0.062500      2.000000
 -0.062500 -0.062500  0.062500      2.000000
  0.062500  0.062500  0.187500      2.000000
  0.187500  0.062500  0.187500      2.000000
  0.312500  0.062500  0.187500      2.000000
  0.437500  0.062500  0.187500      2.000000
 -0.437500  0.062500  0.187500      2.000000
 -0.312500  0.062500  0.187500      2.000000
 -0.187500  0.062500  0.187500      2.000000
 -0.062500  0.062500  0.187500      2.000000
  0.062500  0.187500  0.187500      2.000000
  0.187500  0.187500  0.187500      2.000000
  0.312500  0.187500  0.187500      2.000000
  0.437500  0.187500  0.187500      2.000000
 -0.437500  0.187500  0.187500      2.000000
 -0.312500  0.187500  0.187500      2.000000
 -0.187500  0.187500  0.187500      2.000000
 -0.062500  0.187500  0.187500      2.000000
  0.062500  0.312500  0.187500      2.000000
  0.187500  0.312500  0.187500      2.000000
  0.312500  0.312500  0.187500      2.000000
  0.437500  0.312500  0.187500      2.000000
 -0.437500  0.312500  0.187500      2.000000
 -0.312500  0.312500  0.187500      2.000000
 -0.187500  0.312500  0.187500      2.000000
 -0.062500  0.312500  0.187500      2.000000
  0.062500  0.437500  0.187500      2.000000
  0.187500  0.437500  0.187500      2.000000
  0.312500  0.437500  0.187500      2.000000
  0.437500  0.437500  0.187500      2.000000
 -0.437500  0.437500  0.187500      2.000000
 -0.312500  0.437500  0.187500      2.000000
 -0.187500  0.437500  0.187500      2.000000
 -0.062500  0.437500  0.187500      2.000000
  0.062500 -0.437500  0.187500      2.000000
  0.187500 -0.437500  0.187500      2.000000
  0.312500 -0.437500  0.187500      2.000000
  0.437500 -0.437500  0.187500      2.000000
 -0.437500 -0.437500  0.187500      2.000000
 -0.312500 -0.437500  0.187500      2.000000
 -0.187500 -0.437500  0.187500      2.000000
 -0.062500 -0.437500  0.187500      2.000000
  0.062500 -0.312500  0.187500      2.000000
  0.187500 -0.312500  0.187500      2.000000
  0.312500 -0.312500  0.187500      2.000000
  0.437500 -0.312500  0.187500      2.000000
 -0.437500 -0.312500  0.187500      2.000000
 -0.312500 -0.312500  0.187500      2.000000
 -0.187500 -0.312500  0.187500      2.000000
 -0.062500 -0.312500  0.187500      2.000000
  0.062500 -0.187500  0.187500      2.000000
  0.187500 -0.187500  0.187500      2.000000
  0.312500 -0.187500  0.187500      2.000000
  0.437500 -0.187500  0.187500      2.000000
 -0.437500 -0.187500  0.187500      2.000000
 -0.312500 -0.187500  0.187500      2.000000
 -0.187500 -0.187500  0.187500      2.000000
 -0.062500 -0.187500  0.187500      2.000000
  0.062500 -0.062500  0.187500      2.000000
  0.187500 -0.062500  0.187500      2.000000
  0.312500 -0.062500  0.187500      2.000000
  0.437500 -0.062500  0.187500      2.000000
 -0.437500 -0.062500  0.187500      2.000000
 -0.312500 -0.062500  0.187500      2.000000
 -0.187500 -0.062500  0.187500      2.000000
 -0.062500 -0.062500  0.187500      2.000000
  0.062500  0.062500  0.312500      2.000000
  0.187500  0.062500  0.312500      2.000000
  0.312500  0.062500  0.312500      2.000000
  0.437500  0.062500  0.312500      2.000000
 -0.437500  0.062500  0.312500      2.000000
 -0.312500  0.062500  0.312500      2.000000
 -0.187500  0.062500  0.312500      2.000000
 -0.062500  0.062500  0.312500      2.000000
  0.062500  0.187500  0.312500      2.000000
  0.187500  0.187500  0.312500      2.000000
  0.312500  0.187500  0.312500      2.000000
  0.437500  0.187500  0.312500      2.000000
 -0.437500  0.187500  0.312500      2.000000
 -0.312500  0.187500  0.312500      2.000000
 -0.187500  0.187500  0.312500      2.000000
 -0.062500  0.187500  0.312500      2.000000
  0.062500  0.312500  0.312500      2.000000
  0.187500  0.312500  0.312500      2.000000
  0.312500  0.312500  0.312500      2.000000
  0.437500  0.312500  0.312500      2.000000
 -0.437500  0.312500  0.312500      2.000000
 -0.312500  0.312500  0.312500      2.000000
 -0.187500  0.312500  0.312500      2.000000
 -0.062500  0.312500  0.312500      2.000000
  0.062500  0.437500  0.312500      2.000000
  0.187500  0.437500  0.312500      2.000000
  0.312500  0.437500  0.312500      2.000000
  0.437500  0.437500  0.312500      2.000000
 -0.437500  0.437500  0.312500      2.000000
 -0.312500  0.437500  0.312500      2.000000
 -0.187500  0.437500  0.312500      2.000000
 -0.062500  0.437500  0.312500      2.000000
  0.062500 -0.437500  0.312500      2.000000
  0.187500 -0.437500  0.312500      2.000000
  0.312500 -0.437500  0.312500      2.000000
  0.437500 -0.437500  0.312500      2.000000
 -0.437500 -0.437500  0.312500      2.000000
 -0.312500 -0.437500  0.312500      2.000000
 -0.187500 -0.437500  0.312500      2.000000
 -0.062500 -0.437500  0.312500      2.000000
  0.062500 -0.312500  0.312500      2.000000
  0.187500 -0.312500  0.312500      2.000000
  0.312500 -0.312500  0.312500      2.000000
  0.437500 -0.312500  0.312500      2.000000
 -0.437500 -0.312500  0.312500      2.000000
 -0.312500 -0.312500  0.312500      2.000000
 -0.187500 -0.312500  0.312500      2.000000
 -0.062500 -0.312500  0.312500      2.000000
  0.062500 -0.187500  0.312500      2.000000
  0.187500 -0.187500  0.312500      2.000000
  0.312500 -0.187500  0.312500      2.000000
  0.437500 -0.187500  0.312500      2.000000
 -0.437500 -0.187500  0.312500      2.000000
 -0.312500 -0.187500  0.312500      2.000000
 -0.187500 -0.187500  0.312500      2.000000
 -0.062500 -0.187500  0.312500      2.000000
  0.062500 -0.062500  0.312500      2.000000
  0.187500 -0.062500  0.312500      2.000000
  0.312500 -0.062500  0.312500      2.000000
  0.437500 -0.062500  0.312500      2.000000
 -0.437500 -0.062500  0.312500      2.000000
 -0.312500 -0.062500  0.312500      2.000000
 -0.187500 -0.062500  0.312500      2.000000
 -0.062500 -0.062500  0.312500      2.000000
  0.062500  0.062500  0.437500      2.000000
  0.187500  0.062500  0.437500      2.000000
  0.312500  0.062500  0.437500      2.000000
  0.437500  0.062500  0.437500      2.000000
 -0.437500  0.062500  0.437500      2.000000
 -0.312500  0.062500  0.437500      2.000000
 -0.187500  0.062500  0.437500      2.000000
 -0.062500  0.062500  0.437500      2.000000
  0.062500  0.187500  0.437500      2.000000
  0.187500  0.187500  0.437500      2.000000
  0.312500  0.187500  0.437500      2.000000
  0.437500  0.187500  0.437500      2.000000
 -0.437500  0.187500  0.437500      2.000000
 -0.312500  0.187500  0.437500      2.000000
 -0.187500  0.187500  0.437500      2.000000
 -0.062500  0.187500  0.437500      2.000000
  0.062500  0.312500  0.437500      2.000000
  0.187500  0.312500  0.437500      2.000000
  0.312500  0.312500  0.437500      2.000000
  0.437500  0.312500  0.437500      2.000000
 -0.437500  0.312500  0.437500      2.000000
 -0.312500  0.312500  0.437500      2.000000
 -0.187500  0.312500  0.437500      2.000000
 -0.062500  0.312500  0.437500      2.000000
  0.062500  0.437500  0.437500      2.000000
  0.187500  0.437500  0.437500      2.000000
  0.312500  0.437500  0.437500      2.000000
  0.437500  0.437500  0.437500      2.000000
 -0.437500  0.437500  0.437500      2.000000
 -0.312500  0.437500  0.437500      2.000000
 -0.187500  0.437500  0.437500      2.000000
 -0.062500  0.437500  0.437500      2.000000
  0.062500 -0.437500  0.437500      2.000000
  0.187500 -0.437500  0.437500      2.000000
  0.312500 -0.437500  0.437500      2.000000
  0.437500 -0.437500  0.437500      2.000000
 -0.437500 -0.437500  0.437500      2.000000
 -0.312500 -0.437500  0.437500      2.000000
 -0.187500 -0.437500  0.437500      2.000000
 -0.062500 -0.437500  0.437500      2.000000
  0.062500 -0.312500  0.437500      2.000000
  0.187500 -0.312500  0.437500      2.000000
  0.312500 -0.312500  0.437500      2.000000
  0.437500 -0.312500  0.437500      2.000000
 -0.437500 -0.312500  0.437500      2.000000
 -0.312500 -0.312500  0.437500      2.000000
 -0.187500 -0.312500  0.437500      2.000000
 -0.062500 -0.312500  0.437500      2.000000
  0.062500 -0.187500  0.437500      2.000000
  0.187500 -0.187500  0.437500      2.000000
  0.312500 -0.187500  0.437500      2.000000
  0.437500 -0.187500  0.437500      2.000000
 -0.437500 -0.187500  0.437500      2.000000
 -0.312500 -0.187500  0.437500      2.000000
 -0.187500 -0.187500  0.437500      2.000000
 -0.062500 -0.187500  0.437500      2.000000
  0.062500 -0.062500  0.437500      2.000000
  0.187500 -0.062500  0.437500      2.000000
  0.312500 -0.062500  0.437500      2.000000
  0.437500 -0.062500  0.437500      2.000000
 -0.437500 -0.062500  0.437500      2.000000
 -0.312500 -0.062500  0.437500      2.000000
 -0.187500 -0.062500  0.437500      2.000000
 -0.062500 -0.062500  0.437500      2.000000
 
 Following cartesian coordinates:
            Coordinates               Weight
  0.062500  0.062500  0.062500      2.000000
  0.187500  0.062500  0.062500      2.000000
  0.312500  0.062500  0.062500      2.000000
  0.437500  0.062500  0.062500      2.000000
 -0.437500  0.062500  0.062500      2.000000
 -0.312500  0.062500  0.062500      2.000000
 -0.187500  0.062500  0.062500      2.000000
 -0.062500  0.062500  0.062500      2.000000
  0.062500  0.187500  0.062500      2.000000
  0.187500  0.187500  0.062500      2.000000
  0.312500  0.187500  0.062500      2.000000
  0.437500  0.187500  0.062500      2.000000
 -0.437500  0.187500  0.062500      2.000000
 -0.312500  0.187500  0.062500      2.000000
 -0.187500  0.187500  0.062500      2.000000
 -0.062500  0.187500  0.062500      2.000000
  0.062500  0.312500  0.062500      2.000000
  0.187500  0.312500  0.062500      2.000000
  0.312500  0.312500  0.062500      2.000000
  0.437500  0.312500  0.062500      2.000000
 -0.437500  0.312500  0.062500      2.000000
 -0.312500  0.312500  0.062500      2.000000
 -0.187500  0.312500  0.062500      2.000000
 -0.062500  0.312500  0.062500      2.000000
  0.062500  0.437500  0.062500      2.000000
  0.187500  0.437500  0.062500      2.000000
  0.312500  0.437500  0.062500      2.000000
  0.437500  0.437500  0.062500      2.000000
 -0.437500  0.437500  0.062500      2.000000
 -0.312500  0.437500  0.062500      2.000000
 -0.187500  0.437500  0.062500      2.000000
 -0.062500  0.437500  0.062500      2.000000
  0.062500 -0.437500  0.062500      2.000000
  0.187500 -0.437500  0.062500      2.000000
  0.312500 -0.437500  0.062500      2.000000
  0.437500 -0.437500  0.062500      2.000000
 -0.437500 -0.437500  0.062500      2.000000
 -0.312500 -0.437500  0.062500      2.000000
 -0.187500 -0.437500  0.062500      2.000000
 -0.062500 -0.437500  0.062500      2.000000
  0.062500 -0.312500  0.062500      2.000000
  0.187500 -0.312500  0.062500      2.000000
  0.312500 -0.312500  0.062500      2.000000
  0.437500 -0.312500  0.062500      2.000000
 -0.437500 -0.312500  0.062500      2.000000
 -0.312500 -0.312500  0.062500      2.000000
 -0.187500 -0.312500  0.062500      2.000000
 -0.062500 -0.312500  0.062500      2.000000
  0.062500 -0.187500  0.062500      2.000000
  0.187500 -0.187500  0.062500      2.000000
  0.312500 -0.187500  0.062500      2.000000
  0.437500 -0.187500  0.062500      2.000000
 -0.437500 -0.187500  0.062500      2.000000
 -0.312500 -0.187500  0.062500      2.000000
 -0.187500 -0.187500  0.062500      2.000000
 -0.062500 -0.187500  0.062500      2.000000
  0.062500 -0.062500  0.062500      2.000000
  0.187500 -0.062500  0.062500      2.000000
  0.312500 -0.062500  0.062500      2.000000
  0.437500 -0.062500  0.062500      2.000000
 -0.437500 -0.062500  0.062500      2.000000
 -0.312500 -0.062500  0.062500      2.000000
 -0.187500 -0.062500  0.062500      2.000000
 -0.062500 -0.062500  0.062500      2.000000
  0.062500  0.062500  0.187500      2.000000
  0.187500  0.062500  0.187500      2.000000
  0.312500  0.062500  0.187500      2.000000
  0.437500  0.062500  0.187500      2.000000
 -0.437500  0.062500  0.187500      2.000000
 -0.312500  0.062500  0.187500      2.000000
 -0.187500  0.062500  0.187500      2.000000
 -0.062500  0.062500  0.187500      2.000000
  0.062500  0.187500  0.187500      2.000000
  0.187500  0.187500  0.187500      2.000000
  0.312500  0.187500  0.187500      2.000000
  0.437500  0.187500  0.187500      2.000000
 -0.437500  0.187500  0.187500      2.000000
 -0.312500  0.187500  0.187500      2.000000
 -0.187500  0.187500  0.187500      2.000000
 -0.062500  0.187500  0.187500      2.000000
  0.062500  0.312500  0.187500      2.000000
  0.187500  0.312500  0.187500      2.000000
  0.312500  0.312500  0.187500      2.000000
  0.437500  0.312500  0.187500      2.000000
 -0.437500  0.312500  0.187500      2.000000
 -0.312500  0.312500  0.187500      2.000000
 -0.187500  0.312500  0.187500      2.000000
 -0.062500  0.312500  0.187500      2.000000
  0.062500  0.437500  0.187500      2.000000
  0.187500  0.437500  0.187500      2.000000
  0.312500  0.437500  0.187500      2.000000
  0.437500  0.437500  0.187500      2.000000
 -0.437500  0.437500  0.187500      2.000000
 -0.312500  0.437500  0.187500      2.000000
 -0.187500  0.437500  0.187500      2.000000
 -0.062500  0.437500  0.187500      2.000000
  0.062500 -0.437500  0.187500      2.000000
  0.187500 -0.437500  0.187500      2.000000
  0.312500 -0.437500  0.187500      2.000000
  0.437500 -0.437500  0.187500      2.000000
 -0.437500 -0.437500  0.187500      2.000000
 -0.312500 -0.437500  0.187500      2.000000
 -0.187500 -0.437500  0.187500      2.000000
 -0.062500 -0.437500  0.187500      2.000000
  0.062500 -0.312500  0.187500      2.000000
  0.187500 -0.312500  0.187500      2.000000
  0.312500 -0.312500  0.187500      2.000000
  0.437500 -0.312500  0.187500      2.000000
 -0.437500 -0.312500  0.187500      2.000000
 -0.312500 -0.312500  0.187500      2.000000
 -0.187500 -0.312500  0.187500      2.000000
 -0.062500 -0.312500  0.187500      2.000000
  0.062500 -0.187500  0.187500      2.000000
  0.187500 -0.187500  0.187500      2.000000
  0.312500 -0.187500  0.187500      2.000000
  0.437500 -0.187500  0.187500      2.000000
 -0.437500 -0.187500  0.187500      2.000000
 -0.312500 -0.187500  0.187500      2.000000
 -0.187500 -0.187500  0.187500      2.000000
 -0.062500 -0.187500  0.187500      2.000000
  0.062500 -0.062500  0.187500      2.000000
  0.187500 -0.062500  0.187500      2.000000
  0.312500 -0.062500  0.187500      2.000000
  0.437500 -0.062500  0.187500      2.000000
 -0.437500 -0.062500  0.187500      2.000000
 -0.312500 -0.062500  0.187500      2.000000
 -0.187500 -0.062500  0.187500      2.000000
 -0.062500 -0.062500  0.187500      2.000000
  0.062500  0.062500  0.312500      2.000000
  0.187500  0.062500  0.312500      2.000000
  0.312500  0.062500  0.312500      2.000000
  0.437500  0.062500  0.312500      2.000000
 -0.437500  0.062500  0.312500      2.000000
 -0.312500  0.062500  0.312500      2.000000
 -0.187500  0.062500  0.312500      2.000000
 -0.062500  0.062500  0.312500      2.000000
  0.062500  0.187500  0.312500      2.000000
  0.187500  0.187500  0.312500      2.000000
  0.312500  0.187500  0.312500      2.000000
  0.437500  0.187500  0.312500      2.000000
 -0.437500  0.187500  0.312500      2.000000
 -0.312500  0.187500  0.312500      2.000000
 -0.187500  0.187500  0.312500      2.000000
 -0.062500  0.187500  0.312500      2.000000
  0.062500  0.312500  0.312500      2.000000
  0.187500  0.312500  0.312500      2.000000
  0.312500  0.312500  0.312500      2.000000
  0.437500  0.312500  0.312500      2.000000
 -0.437500  0.312500  0.312500      2.000000
 -0.312500  0.312500  0.312500      2.000000
 -0.187500  0.312500  0.312500      2.000000
 -0.062500  0.312500  0.312500      2.000000
  0.062500  0.437500  0.312500      2.000000
  0.187500  0.437500  0.312500      2.000000
  0.312500  0.437500  0.312500      2.000000
  0.437500  0.437500  0.312500      2.000000
 -0.437500  0.437500  0.312500      2.000000
 -0.312500  0.437500  0.312500      2.000000
 -0.187500  0.437500  0.312500      2.000000
 -0.062500  0.437500  0.312500      2.000000
  0.062500 -0.437500  0.312500      2.000000
  0.187500 -0.437500  0.312500      2.000000
  0.312500 -0.437500  0.312500      2.000000
  0.437500 -0.437500  0.312500      2.000000
 -0.437500 -0.437500  0.312500      2.000000
 -0.312500 -0.437500  0.312500      2.000000
 -0.187500 -0.437500  0.312500      2.000000
 -0.062500 -0.437500  0.312500      2.000000
  0.062500 -0.312500  0.312500      2.000000
  0.187500 -0.312500  0.312500      2.000000
  0.312500 -0.312500  0.312500      2.000000
  0.437500 -0.312500  0.312500      2.000000
 -0.437500 -0.312500  0.312500      2.000000
 -0.312500 -0.312500  0.312500      2.000000
 -0.187500 -0.312500  0.312500      2.000000
 -0.062500 -0.312500  0.312500      2.000000
  0.062500 -0.187500  0.312500      2.000000
  0.187500 -0.187500  0.312500      2.000000
  0.312500 -0.187500  0.312500      2.000000
  0.437500 -0.187500  0.312500      2.000000
 -0.437500 -0.187500  0.312500      2.000000
 -0.312500 -0.187500  0.312500      2.000000
 -0.187500 -0.187500  0.312500      2.000000
 -0.062500 -0.187500  0.312500      2.000000
  0.062500 -0.062500  0.312500      2.000000
  0.187500 -0.062500  0.312500      2.000000
  0.312500 -0.062500  0.312500      2.000000
  0.437500 -0.062500  0.312500      2.000000
 -0.437500 -0.062500  0.312500      2.000000
 -0.312500 -0.062500  0.312500      2.000000
 -0.187500 -0.062500  0.312500      2.000000
 -0.062500 -0.062500  0.312500      2.000000
  0.062500  0.062500  0.437500      2.000000
  0.187500  0.062500  0.437500      2.000000
  0.312500  0.062500  0.437500      2.000000
  0.437500  0.062500  0.437500      2.000000
 -0.437500  0.062500  0.437500      2.000000
 -0.312500  0.062500  0.437500      2.000000
 -0.187500  0.062500  0.437500      2.000000
 -0.062500  0.062500  0.437500      2.000000
  0.062500  0.187500  0.437500      2.000000
  0.187500  0.187500  0.437500      2.000000
  0.312500  0.187500  0.437500      2.000000
  0.437500  0.187500  0.437500      2.000000
 -0.437500  0.187500  0.437500      2.000000
 -0.312500  0.187500  0.437500      2.000000
 -0.187500  0.187500  0.437500      2.000000
 -0.062500  0.187500  0.437500      2.000000
  0.062500  0.312500  0.437500      2.000000
  0.187500  0.312500  0.437500      2.000000
  0.312500  0.312500  0.437500      2.000000
  0.437500  0.312500  0.437500      2.000000
 -0.437500  0.312500  0.437500      2.000000
 -0.312500  0.312500  0.437500      2.000000
 -0.187500  0.312500  0.437500      2.000000
 -0.062500  0.312500  0.437500      2.000000
  0.062500  0.437500  0.437500      2.000000
  0.187500  0.437500  0.437500      2.000000
  0.312500  0.437500  0.437500      2.000000
  0.437500  0.437500  0.437500      2.000000
 -0.437500  0.437500  0.437500      2.000000
 -0.312500  0.437500  0.437500      2.000000
 -0.187500  0.437500  0.437500      2.000000
 -0.062500  0.437500  0.437500      2.000000
  0.062500 -0.437500  0.437500      2.000000
  0.187500 -0.437500  0.437500      2.000000
  0.312500 -0.437500  0.437500      2.000000
  0.437500 -0.437500  0.437500      2.000000
 -0.437500 -0.437500  0.437500      2.000000
 -0.312500 -0.437500  0.437500      2.000000
 -0.187500 -0.437500  0.437500      2.000000
 -0.062500 -0.437500  0.437500      2.000000
  0.062500 -0.312500  0.437500      2.000000
  0.187500 -0.312500  0.437500      2.000000
  0.312500 -0.312500  0.437500      2.000000
  0.437500 -0.312500  0.437500      2.000000
 -0.437500 -0.312500  0.437500      2.000000
 -0.312500 -0.312500  0.437500      2.000000
 -0.187500 -0.312500  0.437500      2.000000
 -0.062500 -0.312500  0.437500      2.000000
  0.062500 -0.187500  0.437500      2.000000
  0.187500 -0.187500  0.437500      2.000000
  0.312500 -0.187500  0.437500      2.000000
  0.437500 -0.187500  0.437500      2.000000
 -0.437500 -0.187500  0.437500      2.000000
 -0.312500 -0.187500  0.437500      2.000000
 -0.187500 -0.187500  0.437500      2.000000
 -0.062500 -0.187500  0.437500      2.000000
  0.062500 -0.062500  0.437500      2.000000
  0.187500 -0.062500  0.437500      2.000000
  0.312500 -0.062500  0.437500      2.000000
  0.437500 -0.062500  0.437500      2.000000
 -0.437500 -0.062500  0.437500      2.000000
 -0.312500 -0.062500  0.437500      2.000000
 -0.187500 -0.062500  0.437500      2.000000
 -0.062500 -0.062500  0.437500      2.000000
 


--------------------------------------------------------------------------------------------------------




 Dimension of arrays:
   k-points           NKPTS =    256   k-points in BZ     NKDIM =    256   number of bands    NBANDS=     32
   number of dos      NEDOS =    301   number of ions     NIONS =      2
   non local maximal  LDIM  =      6   non local SUM 2l+1 LMDIM =     18
   total plane-waves  NPLWV =   1728
   max r-space proj   IRMAX =      1   max aug-charges    IRDMAX=   2830
   dimension x,y,z NGX =    12 NGY =   12 NGZ =   12
   dimension x,y,z NGXF=    24 NGYF=   24 NGZF=   24
   support grid    NGXF=    24 NGYF=   24 NGZF=   24
   ions per type =               2
 NGX,Y,Z   is equivalent  to a cutoff of   6.98,  6.98,  6.98 a.u.
 NGXF,Y,Z  is equivalent  to a cutoff of  13.95, 13.95, 13.95 a.u.


 I would recommend the setting:
   dimension x,y,z NGX =    12 NGY =   12 NGZ =   12
 SYSTEM =  Fe Bulk                                 
 POSCAR =  BCC Fe                                  

 Startparameter for this run:
   NWRITE =      2    write-flag & timer
   PREC   = normal    normal or accurate (medium, high low for compatibility)
   ISTART =      0    job   : 0-new  1-cont  2-samecut
   ICHARG =      2    charge: 1-file 2-atom 10-const
   ISPIN  =      2    spin polarized calculation?
   LNONCOLLINEAR =      F non collinear calculations
   LSORBIT =      F    spin-orbit coupling
   INIWAV =      1    electr: 0-lowe 1-rand  2-diag
   LASPH  =      F    aspherical Exc in radial PAW
   METAGGA=      F    non-selfconsistent MetaGGA calc.

 Electronic Relaxation 1
   ENCUT  =  300.0 eV  22.05 Ry    4.70 a.u.   4.04  4.04  4.04*2*pi/ulx,y,z
   ENINI  =  300.0     initial cutoff
   ENAUG  =  511.4 eV  augmentation charge cutoff
   NELM   =     60;   NELMIN=  6; NELMDL= -5     # of ELM steps 
   EDIFF  = 0.1E-04   stopping-criterion for ELM
   LREAL  =      F    real-space projection
   NLSPLINE    = F    spline interpolate recip. space projectors
   LCOMPAT=      F    compatible to vasp.4.4
   GGA_COMPAT  = T    GGA compatible to vasp.4.4-vasp.4.6
   LMAXPAW     = -100 max onsite density
   LMAXMIX     =    2 max onsite mixed and CHGCAR
   VOSKOWN=      0    Vosko Wilk Nusair interpolation
   ROPT   =    0.00000
 Ionic relaxation
   EDIFFG = -.1E-01   stopping-criterion for IOM
   NSW    =     20    number of steps for IOM
   NBLOCK =      1;   KBLOCK =     20    inner block; outer block 
   IBRION =      2    ionic relax: 0-MD 1-quasi-New 2-CG
   NFREE  =      1    steps in history (QN), initial steepest desc. (CG)
   ISIF   =      2    stress and relaxation
   IWAVPR =     11    prediction:  0-non 1-charg 2-wave 3-comb
   ISYM   =      0    0-nonsym 1-usesym 2-fastsym
   LCORR  =      T    Harris-Foulkes like correction to forces

   POTIM  = 0.5000    time-step for ionic-motion
   TEIN   =    0.0    initial temperature
   TEBEG  =    0.0;   TEEND  =   0.0 temperature during run
   SMASS  =  -3.00    Nose mass-parameter (am)
   estimated Nose-frequenzy (Omega)   =  0.10E-29 period in steps =****** mass=  -0.187E-27a.u.
   SCALEE = 1.0000    scale energy and forces
   NPACO  =    256;   APACO  = 16.0  distance and # of slots for P.C.
   PSTRESS=    0.0 pullay stress

  Mass of Ions in am
   POMASS =  55.85
  Ionic Valenz
   ZVAL   =   8.00
  Atomic Wigner-Seitz radii
   RWIGS  =  -1.00
  virtual crystal weights 
   VCA    =   1.00
   NELECT =      16.0000    total number of electrons
   NUPDOWN=      -1.0000    fix difference up-down

 DOS related values:
   EMIN   =  10.00;   EMAX   =-10.00  energy-range for DOS
   EFERMI =   0.00
   ISMEAR =     1;   SIGMA  =   0.20  broadening in eV -4-tet -1-fermi 0-gaus

 Electronic relaxation 2 (details)
   IALGO  =     38    algorithm
   LDIAG  =      T    sub-space diagonalisation (order eigenvalues)
   LSUBROT=      F    optimize rotation matrix (better conditioning)
   TURBO    =      0    0=normal 1=particle mesh
   IRESTART =      0    0=no restart 2=restart with 2 vectors
   NREBOOT  =      0    no. of reboots
   NMIN     =      0    reboot dimension
   EREF     =   0.00    reference energy to select bands
   IMIX   =      4    mixing-type and parameters
     AMIX     =   0.40;   BMIX     =  1.00
     AMIX_MAG =   1.60;   BMIX_MAG =  1.00
     AMIN     =   0.10
     WC   =   100.;   INIMIX=   1;  MIXPRE=   1;  MAXMIX=  40

 Intra band minimization:
   WEIMIN = 0.0010     energy-eigenvalue tresh-hold
   EBREAK =  0.78E-07  absolut break condition
   DEPER  =   0.30     relativ break condition  

   TIME   =   0.40     timestep for ELM

  volume/ion in A,a.u.               =      11.70        78.93
  Fermi-wavevector in a.u.,A,eV,Ry     =   1.442388  2.725718 28.306695  2.080483
  Thomas-Fermi vector in A             =   2.560914
 
 Write flags
   LWAVE  =      F    write WAVECAR
   LCHARG =      F    write CHGCAR
   LVTOT  =      F    write LOCPOT, total local potential
   LVHAR  =      F    write LOCPOT, Hartree potential only
   LELF   =      F    write electronic localiz. function (ELF)
   LORBIT =      0    0 simple, 1 ext, 2 COOP (PROOUT)


 Dipole corrections
   LMONO  =      F    monopole corrections only (constant potential shift)
   LDIPOL =      F    correct potential (dipole corrections)
   IDIPOL =      0    1-x, 2-y, 3-z, 4-all directions 
   EPSILON=  1.0000000 bulk dielectric constant

 Exchange correlation treatment:
   GGA     =    PE    GGA type
   LEXCH   =     8    internal setting for exchange type
   VOSKOWN=      0    Vosko Wilk Nusair interpolation
   LHFCALC =     F    Hartree Fock is set to
   LHFONE  =     F    Hartree Fock one center treatment
   AEXX    =    0.0000 exact exchange contribution

 Linear response parameters
   LEPSILON=     F    determine dielectric tensor
   LRPA    =     F    only Hartree local field effects (RPA)
   LNABLA  =     F    use nabla operator in PAW spheres
   LVEL    =     F    velocity operator in full k-point grid
   LINTERFAST=   F  fast interpolation
   KINTER  =     0    interpolate to denser k-point grid
   CSHIFT  =0.1000    complex shift for real part using Kramers Kronig
   OMEGAMAX=  -1.0    maximum frequency
   DEG_THRESHOLD= 0.2000000E-02 threshold for treating states as degnerate
   RTIME   =    0.100 relaxation time in fs

 Orbital magnetization related:
   ORBITALMAG=     F  switch on orbital magnetization
   LCHIMAG   =     F  perturbation theory with respect to B field
   DQ        =  0.001000  dq finite difference perturbation B field



--------------------------------------------------------------------------------------------------------


 conjugate gradient relaxation of ions
 charge density and potential will be updated during run
 spin polarized calculation
 Variant of blocked Davidson
 Davidson routine will perform the subspace rotation
 perform sub-space diagonalisation
    after iterative eigenvector-optimisation
 modified Broyden-mixing scheme, WC =      100.0
 initial mixing is a Kerker type mixing with AMIX =  0.4000 and BMIX =      1.0000
 Hartree-type preconditioning will be used
 using additional bands           24
 reciprocal scheme for non local part
 use partial core corrections
 calculate Harris-corrections to forces 
   (improved forces if not selfconsistent)
 use gradient corrections 
 use of overlap-Matrix (Vanderbilt PP)
 Methfessel and Paxton  Order N= 1 SIGMA  =   0.20


--------------------------------------------------------------------------------------------------------


  energy-cutoff  :      300.00
  volume of cell :       23.39
      direct lattice vectors                 reciprocal lattice vectors
     2.860000000  0.000000000  0.000000000     0.349650350  0.000000000  0.000000000
     0.000000000  2.860000000  0.000000000     0.000000000  0.349650350  0.000000000
     0.000000000  0.000000000  2.860000000     0.000000000  0.000000000  0.349650350

  length of vectors
     2.860000000  2.860000000  2.860000000     0.349650350  0.349650350  0.349650350


 
 k-points in units of 2pi/SCALE and weight: Automatic mesh                          
   0.06250000  0.06250000  0.06250000       0.004
   0.18750000  0.06250000  0.06250000       0.004
   0.31250000  0.06250000  0.06250000       0.004
   0.43750000  0.06250000  0.06250000       0.004
  -0.43750000  0.06250000  0.06250000       0.004
  -0.31250000  0.06250000  0.06250000       0.004
  -0.18750000  0.06250000  0.06250000       0.004
  -0.06250000  0.06250000  0.06250000       0.004
   0.06250000  0.18750000  0.06250000       0.004
   0.18750000  0.18750000  0.06250000       0.004
   0.31250000  0.18750000  0.06250000       0.004
   0.43750000  0.18750000  0.06250000       0.004
  -0.43750000  0.18750000  0.06250000       0.004
  -0.31250000  0.18750000  0.06250000       0.004
  -0.18750000  0.18750000  0.06250000       0.004
  -0.06250000  0.18750000  0.06250000       0.004
   0.06250000  0.31250000  0.06250000       0.004
   0.18750000  0.31250000  0.06250000       0.004
   0.31250000  0.31250000  0.06250000       0.004
   0.43750000  0.31250000  0.06250000       0.004
  -0.43750000  0.31250000  0.06250000       0.004
  -0.31250000  0.31250000  0.06250000       0.004
  -0.18750000  0.31250000  0.06250000       0.004
  -0.06250000  0.31250000  0.06250000       0.004
   0.06250000  0.43750000  0.06250000       0.004
   0.18750000  0.43750000  0.06250000       0.004
   0.31250000  0.43750000  0.06250000       0.004
   0.43750000  0.43750000  0.06250000       0.004
  -0.43750000  0.43750000  0.06250000       0.004
  -0.31250000  0.43750000  0.06250000       0.004
  -0.18750000  0.43750000  0.06250000       0.004
  -0.06250000  0.43750000  0.06250000       0.004
   0.06250000 -0.43750000  0.06250000       0.004
   0.18750000 -0.43750000  0.06250000       0.004
   0.31250000 -0.43750000  0.06250000       0.004
   0.43750000 -0.43750000  0.06250000       0.004
  -0.43750000 -0.43750000  0.06250000       0.004
  -0.31250000 -0.43750000  0.06250000       0.004
  -0.18750000 -0.43750000  0.06250000       0.004
  -0.06250000 -0.43750000  0.06250000       0.004
   0.06250000 -0.31250000  0.06250000       0.004
   0.18750000 -0.31250000  0.06250000       0.004
   0.31250000 -0.31250000  0.06250000       0.004
   0.43750000 -0.31250000  0.06250000       0.004
  -0.43750000 -0.31250000  0.06250000       0.004
  -0.31250000 -0.31250000  0.06250000       0.004
  -0.18750000 -0.31250000  0.06250000       0.004
  -0.06250000 -0.31250000  0.06250000       0.004
   0.06250000 -0.18750000  0.06250000       0.004
   0.18750000 -0.18750000  0.06250000       0.004
   0.31250000 -0.18750000  0.06250000       0.004
   0.43750000 -0.18750000  0.06250000       0.004
  -0.43750000 -0.18750000  0.06250000       0.004
  -0.31250000 -0.18750000  0.06250000       0.004
  -0.18750000 -0.18750000  0.06250000       0.004
  -0.06250000 -0.18750000  0.06250000       0.004
   0.06250000 -0.06250000  0.06250000       0.004
   0.18750000 -0.06250000  0.06250000       0.004
   0.31250000 -0.06250000  0.06250000       0.004
   0.43750000 -0.06250000  0.06250000       0.004
  -0.43750000 -0.06250000  0.06250000       0.004
  -0.31250000 -0.06250000  0.06250000       0.004
  -0.18750000 -0.06250000  0.06250000       0.004
  -0.06250000 -0.06250000  0.06250000       0.004
   0.06250000  0.06250000  0.18750000       0.004
   0.18750000  0.06250000  0.18750000       0.004
   0.31250000  0.06250000  0.18750000       0.004
   0.43750000  0.06250000  0.18750000       0.004
  -0.43750000  0.06250000  0.18750000       0.004
  -0.31250000  0.06250000  0.18750000       0.004
  -0.18750000  0.06250000  0.18750000       0.004
  -0.06250000  0.06250000  0.18750000       0.004
   0.06250000  0.18750000  0.18750000       0.004
   0.18750000  0.18750000  0.18750000       0.004
   0.31250000  0.18750000  0.18750000       0.004
   0.43750000  0.18750000  0.18750000       0.004
  -0.43750000  0.18750000  0.18750000       0.004
  -0.31250000  0.18750000  0.18750000       0.004
  -0.18750000  0.18750000  0.18750000       0.004
  -0.06250000  0.18750000  0.18750000       0.004
   0.06250000  0.31250000  0.18750000       0.004
   0.18750000  0.31250000  0.18750000       0.004
   0.31250000  0.31250000  0.18750000       0.004
   0.43750000  0.31250000  0.18750000       0.004
  -0.43750000  0.31250000  0.18750000       0.004
  -0.31250000  0.31250000  0.18750000       0.004
  -0.18750000  0.31250000  0.18750000       0.004
  -0.06250000  0.31250000  0.18750000       0.004
   0.06250000  0.43750000  0.18750000       0.004
   0.18750000  0.43750000  0.18750000       0.004
   0.31250000  0.43750000  0.18750000       0.004
   0.43750000  0.43750000  0.18750000       0.004
  -0.43750000  0.43750000  0.18750000       0.004
  -0.31250000  0.43750000  0.18750000       0.004
  -0.18750000  0.43750000  0.18750000       0.004
  -0.06250000  0.43750000  0.18750000       0.004
   0.06250000 -0.43750000  0.18750000       0.004
   0.18750000 -0.43750000  0.18750000       0.004
   0.31250000 -0.43750000  0.18750000       0.004
   0.43750000 -0.43750000  0.18750000       0.004
  -0.43750000 -0.43750000  0.18750000       0.004
  -0.31250000 -0.43750000  0.18750000       0.004
  -0.18750000 -0.43750000  0.18750000       0.004
  -0.06250000 -0.43750000  0.18750000       0.004
   0.06250000 -0.31250000  0.18750000       0.004
   0.18750000 -0.31250000  0.18750000       0.004
   0.31250000 -0.31250000  0.18750000       0.004
   0.43750000 -0.31250000  0.18750000       0.004
  -0.43750000 -0.31250000  0.18750000       0.004
  -0.31250000 -0.31250000  0.18750000       0.004
  -0.18750000 -0.31250000  0.18750000       0.004
  -0.06250000 -0.31250000  0.18750000       0.004
   0.06250000 -0.18750000  0.18750000       0.004
   0.18750000 -0.18750000  0.18750000       0.004
   0.31250000 -0.18750000  0.18750000       0.004
   0.43750000 -0.18750000  0.18750000       0.004
  -0.43750000 -0.18750000  0.18750000       0.004
  -0.31250000 -0.18750000  0.18750000       0.004
  -0.18750000 -0.18750000  0.18750000       0.004
  -0.06250000 -0.18750000  0.18750000       0.004
   0.06250000 -0.06250000  0.18750000       0.004
   0.18750000 -0.06250000  0.18750000       0.004
   0.31250000 -0.06250000  0.18750000       0.004
   0.43750000 -0.06250000  0.18750000       0.004
  -0.43750000 -0.06250000  0.18750000       0.004
  -0.31250000 -0.06250000  0.18750000       0.004
  -0.18750000 -0.06250000  0.18750000       0.004
  -0.06250000 -0.06250000  0.18750000       0.004
   0.06250000  0.06250000  0.31250000       0.004
   0.18750000  0.06250000  0.31250000       0.004
   0.31250000  0.06250000  0.31250000       0.004
   0.43750000  0.06250000  0.31250000       0.004
  -0.43750000  0.06250000  0.31250000       0.004
  -0.31250000  0.06250000  0.31250000       0.004
  -0.18750000  0.06250000  0.31250000       0.004
  -0.06250000  0.06250000  0.31250000       0.004
   0.06250000  0.18750000  0.31250000       0.004
   0.18750000  0.18750000  0.31250000       0.004
   0.31250000  0.18750000  0.31250000       0.004
   0.43750000  0.18750000  0.31250000       0.004
  -0.43750000  0.18750000  0.31250000       0.004
  -0.31250000  0.18750000  0.31250000       0.004
  -0.18750000  0.18750000  0.31250000       0.004
  -0.06250000  0.18750000  0.31250000       0.004
   0.06250000  0.31250000  0.31250000       0.004
   0.18750000  0.31250000  0.31250000       0.004
   0.31250000  0.31250000  0.31250000       0.004
   0.43750000  0.31250000  0.31250000       0.004
  -0.43750000  0.31250000  0.31250000       0.004
  -0.31250000  0.31250000  0.31250000       0.004
  -0.18750000  0.31250000  0.31250000       0.004
  -0.06250000  0.31250000  0.31250000       0.004
   0.06250000  0.43750000  0.31250000       0.004
   0.18750000  0.43750000  0.31250000       0.004
   0.31250000  0.43750000  0.31250000       0.004
   0.43750000  0.43750000  0.31250000       0.004
  -0.43750000  0.43750000  0.31250000       0.004
  -0.31250000  0.43750000  0.31250000       0.004
  -0.18750000  0.43750000  0.31250000       0.004
  -0.06250000  0.43750000  0.31250000       0.004
   0.06250000 -0.43750000  0.31250000       0.004
   0.18750000 -0.43750000  0.31250000       0.004
   0.31250000 -0.43750000  0.31250000       0.004
   0.43750000 -0.43750000  0.31250000       0.004
  -0.43750000 -0.43750000  0.31250000       0.004
  -0.31250000 -0.43750000  0.31250000       0.004
  -0.18750000 -0.43750000  0.31250000       0.004
  -0.06250000 -0.43750000  0.31250000       0.004
   0.06250000 -0.31250000  0.31250000       0.004
   0.18750000 -0.31250000  0.31250000       0.004
   0.31250000 -0.31250000  0.31250000       0.004
   0.43750000 -0.31250000  0.31250000       0.004
  -0.43750000 -0.31250000  0.31250000       0.004
  -0.31250000 -0.31250000  0.31250000       0.004
  -0.18750000 -0.31250000  0.31250000       0.004
  -0.06250000 -0.31250000  0.31250000       0.004
   0.06250000 -0.18750000  0.31250000       0.004
   0.18750000 -0.18750000  0.31250000       0.004
   0.31250000 -0.18750000  0.31250000       0.004
   0.43750000 -0.18750000  0.31250000       0.004
  -0.43750000 -0.18750000  0.31250000       0.004
  -0.31250000 -0.18750000  0.31250000       0.004
  -0.18750000 -0.18750000  0.31250000       0.004
  -0.06250000 -0.18750000  0.31250000       0.004
   0.06250000 -0.06250000  0.31250000       0.004
   0.18750000 -0.06250000  0.31250000       0.004
   0.31250000 -0.06250000  0.31250000       0.004
   0.43750000 -0.06250000  0.31250000       0.004
  -0.43750000 -0.06250000  0.31250000       0.004
  -0.31250000 -0.06250000  0.31250000       0.004
  -0.18750000 -0.06250000  0.31250000       0.004
  -0.06250000 -0.06250000  0.31250000       0.004
   0.06250000  0.06250000  0.43750000       0.004
   0.18750000  0.06250000  0.43750000       0.004
   0.31250000  0.06250000  0.43750000       0.004
   0.43750000  0.06250000  0.43750000       0.004
  -0.43750000  0.06250000  0.43750000       0.004
  -0.31250000  0.06250000  0.43750000       0.004
  -0.18750000  0.06250000  0.43750000       0.004
  -0.06250000  0.06250000  0.43750000       0.004
   0.06250000  0.18750000  0.43750000       0.004
   0.18750000  0.18750000  0.43750000       0.004
   0.31250000  0.18750000  0.43750000       0.004
   0.43750000  0.18750000  0.43750000       0.004
  -0.43750000  0.18750000  0.43750000       0.004
  -0.31250000  0.18750000  0.43750000       0.004
  -0.18750000  0.18750000  0.43750000       0.004
  -0.06250000  0.18750000  0.43750000       0.004
   0.06250000  0.31250000  0.43750000       0.004
   0.18750000  0.31250000  0.43750000       0.004
   0.31250000  0.31250000  0.43750000       0.004
   0.43750000  0.31250000  0.43750000       0.004
  -0.43750000  0.31250000  0.43750000       0.004
  -0.31250000  0.31250000  0.43750000       0.004
  -0.18750000  0.31250000  0.43750000       0.004
  -0.06250000  0.31250000  0.43750000       0.004
   0.06250000  0.43750000  0.43750000       0.004
   0.18750000  0.43750000  0.43750000       0.004
   0.31250000  0.43750000  0.43750000       0.004
   0.43750000  0.43750000  0.43750000       0.004
  -0.43750000  0.43750000  0.43750000       0.004
  -0.31250000  0.43750000  0.43750000       0.004
  -0.18750000  0.43750000  0.43750000       0.004
  -0.06250000  0.43750000  0.43750000       0.004
   0.06250000 -0.43750000  0.43750000       0.004
   0.18750000 -0.43750000  0.43750000       0.004
   0.31250000 -0.43750000  0.43750000       0.004
   0.43750000 -0.43750000  0.43750000       0.004
  -0.43750000 -0.43750000  0.43750000       0.004
  -0.31250000 -0.43750000  0.43750000       0.004
  -0.18750000 -0.43750000  0.43750000       0.004
  -0.06250000 -0.43750000  0.43750000       0.004
   0.06250000 -0.31250000  0.43750000       0.004
   0.18750000 -0.31250000  0.43750000       0.004
   0.31250000 -0.31250000  0.43750000       0.004
   0.43750000 -0.31250000  0.43750000       0.004
  -0.43750000 -0.31250000  0.43750000       0.004
  -0.31250000 -0.31250000  0.43750000       0.004
  -0.18750000 -0.31250000  0.43750000       0.004
  -0.06250000 -0.31250000  0.43750000       0.004
   0.06250000 -0.18750000  0.43750000       0.004
   0.18750000 -0.18750000  0.43750000       0.004
   0.31250000 -0.18750000  0.43750000       0.004
   0.43750000 -0.18750000  0.43750000       0.004
  -0.43750000 -0.18750000  0.43750000       0.004
  -0.31250000 -0.18750000  0.43750000       0.004
  -0.18750000 -0.18750000  0.43750000       0.004
  -0.06250000 -0.18750000  0.43750000       0.004
   0.06250000 -0.06250000  0.43750000       0.004
   0.18750000 -0.06250000  0.43750000       0.004
   0.31250000 -0.06250000  0.43750000       0.004
   0.43750000 -0.06250000  0.43750000       0.004
  -0.43750000 -0.06250000  0.43750000       0.004
  -0.31250000 -0.06250000  0.43750000       0.004
  -0.18750000 -0.06250000  0.43750000       0.004
  -0.06250000 -0.06250000  0.43750000       0.004
 
 k-points in reciprocal lattice and weights: Automatic mesh                          
   0.06250000  0.06250000  0.06250000       0.004
   0.18750000  0.06250000  0.06250000       0.004
   0.31250000  0.06250000  0.06250000       0.004
   0.43750000  0.06250000  0.06250000       0.004
  -0.43750000  0.06250000  0.06250000       0.004
  -0.31250000  0.06250000  0.06250000       0.004
  -0.18750000  0.06250000  0.06250000       0.004
  -0.06250000  0.06250000  0.06250000       0.004
   0.06250000  0.18750000  0.06250000       0.004
   0.18750000  0.18750000  0.06250000       0.004
   0.31250000  0.18750000  0.06250000       0.004
   0.43750000  0.18750000  0.06250000       0.004
  -0.43750000  0.18750000  0.06250000       0.004
  -0.31250000  0.18750000  0.06250000       0.004
  -0.18750000  0.18750000  0.06250000       0.004
  -0.06250000  0.18750000  0.06250000       0.004
   0.06250000  0.31250000  0.06250000       0.004
   0.18750000  0.31250000  0.06250000       0.004
   0.31250000  0.31250000  0.06250000       0.004
   0.43750000  0.31250000  0.06250000       0.004
  -0.43750000  0.31250000  0.06250000       0.004
  -0.31250000  0.31250000  0.06250000       0.004
  -0.18750000  0.31250000  0.06250000       0.004
  -0.06250000  0.31250000  0.06250000       0.004
   0.06250000  0.43750000  0.06250000       0.004
   0.18750000  0.43750000  0.06250000       0.004
   0.31250000  0.43750000  0.06250000       0.004
   0.43750000  0.43750000  0.06250000       0.004
  -0.43750000  0.43750000  0.06250000       0.004
  -0.31250000  0.43750000  0.06250000       0.004
  -0.18750000  0.43750000  0.06250000       0.004
  -0.06250000  0.43750000  0.06250000       0.004
   0.06250000 -0.43750000  0.06250000       0.004
   0.18750000 -0.43750000  0.06250000       0.004
   0.31250000 -0.43750000  0.06250000       0.004
   0.43750000 -0.43750000  0.06250000       0.004
  -0.43750000 -0.43750000  0.06250000       0.004
  -0.31250000 -0.43750000  0.06250000       0.004
  -0.18750000 -0.43750000  0.06250000       0.004
  -0.06250000 -0.43750000  0.06250000       0.004
   0.06250000 -0.31250000  0.06250000       0.004
   0.18750000 -0.31250000  0.06250000       0.004
   0.31250000 -0.31250000  0.06250000       0.004
   0.43750000 -0.31250000  0.06250000       0.004
  -0.43750000 -0.31250000  0.06250000       0.004
  -0.31250000 -0.31250000  0.06250000       0.004
  -0.18750000 -0.31250000  0.06250000       0.004
  -0.06250000 -0.31250000  0.06250000       0.004
   0.06250000 -0.18750000  0.06250000       0.004
   0.18750000 -0.18750000  0.06250000       0.004
   0.31250000 -0.18750000  0.06250000       0.004
   0.43750000 -0.18750000  0.06250000       0.004
  -0.43750000 -0.18750000  0.06250000       0.004
  -0.31250000 -0.18750000  0.06250000       0.004
  -0.18750000 -0.18750000  0.06250000       0.004
  -0.06250000 -0.18750000  0.06250000       0.004
   0.06250000 -0.06250000  0.06250000       0.004
   0.18750000 -0.06250000  0.06250000       0.004
   0.31250000 -0.06250000  0.06250000       0.004
   0.43750000 -0.06250000  0.06250000       0.004
  -0.43750000 -0.06250000  0.06250000       0.004
  -0.31250000 -0.06250000  0.06250000       0.004
  -0.18750000 -0.06250000  0.06250000       0.004
  -0.06250000 -0.06250000  0.06250000       0.004
   0.06250000  0.06250000  0.18750000       0.004
   0.18750000  0.06250000  0.18750000       0.004
   0.31250000  0.06250000  0.18750000       0.004
   0.43750000  0.06250000  0.18750000       0.004
  -0.43750000  0.06250000  0.18750000       0.004
  -0.31250000  0.06250000  0.18750000       0.004
  -0.18750000  0.06250000  0.18750000       0.004
  -0.06250000  0.06250000  0.18750000       0.004
   0.06250000  0.18750000  0.18750000       0.004
   0.18750000  0.18750000  0.18750000       0.004
   0.31250000  0.18750000  0.18750000       0.004
   0.43750000  0.18750000  0.18750000       0.004
  -0.43750000  0.18750000  0.18750000       0.004
  -0.31250000  0.18750000  0.18750000       0.004
  -0.18750000  0.18750000  0.18750000       0.004
  -0.06250000  0.18750000  0.18750000       0.004
   0.06250000  0.31250000  0.18750000       0.004
   0.18750000  0.31250000  0.18750000       0.004
   0.31250000  0.31250000  0.18750000       0.004
   0.43750000  0.31250000  0.18750000       0.004
  -0.43750000  0.31250000  0.18750000       0.004
  -0.31250000  0.31250000  0.18750000       0.004
  -0.18750000  0.31250000  0.18750000       0.004
  -0.06250000  0.31250000  0.18750000       0.004
   0.06250000  0.43750000  0.18750000       0.004
   0.18750000  0.43750000  0.18750000       0.004
   0.31250000  0.43750000  0.18750000       0.004
   0.43750000  0.43750000  0.18750000       0.004
  -0.43750000  0.43750000  0.18750000       0.004
  -0.31250000  0.43750000  0.18750000       0.004
  -0.18750000  0.43750000  0.18750000       0.004
  -0.06250000  0.43750000  0.18750000       0.004
   0.06250000 -0.43750000  0.18750000       0.004
   0.18750000 -0.43750000  0.18750000       0.004
   0.31250000 -0.43750000  0.18750000       0.004
   0.43750000 -0.43750000  0.18750000       0.004
  -0.43750000 -0.43750000  0.18750000       0.004
  -0.31250000 -0.43750000  0.18750000       0.004
  -0.18750000 -0.43750000  0.18750000       0.004
  -0.06250000 -0.43750000  0.18750000       0.004
   0.06250000 -0.31250000  0.18750000       0.004
   0.18750000 -0.31250000  0.18750000       0.004
   0.31250000 -0.31250000  0.18750000       0.004
   0.43750000 -0.31250000  0.18750000       0.004
  -0.43750000 -0.31250000  0.18750000       0.004
  -0.31250000 -0.31250000  0.18750000       0.004
  -0.18750000 -0.31250000  0.18750000       0.004
  -0.06250000 -0.31250000  0.18750000       0.004
   0.06250000 -0.18750000  0.18750000       0.004
   0.18750000 -0.18750000  0.18750000       0.004
   0.31250000 -0.18750000  0.18750000       0.004
   0.43750000 -0.18750000  0.18750000       0.004
  -0.43750000 -0.18750000  0.18750000       0.004
  -0.31250000 -0.18750000  0.18750000       0.004
  -0.18750000 -0.18750000  0.18750000       0.004
  -0.06250000 -0.18750000  0.18750000       0.004
   0.06250000 -0.06250000  0.18750000       0.004
   0.18750000 -0.06250000  0.18750000       0.004
   0.31250000 -0.06250000  0.18750000       0.004
   0.43750000 -0.06250000  0.18750000       0.004
  -0.43750000 -0.06250000  0.18750000       0.004
  -0.31250000 -0.06250000  0.18750000       0.004
  -0.18750000 -0.06250000  0.18750000       0.004
  -0.06250000 -0.06250000  0.18750000       0.004
   0.06250000  0.06250000  0.31250000       0.004
   0.18750000  0.06250000  0.31250000       0.004
   0.31250000  0.06250000  0.31250000       0.004
   0.43750000  0.06250000  0.31250000       0.004
  -0.43750000  0.06250000  0.31250000       0.004
  -0.31250000  0.06250000  0.31250000       0.004
  -0.18750000  0.06250000  0.31250000       0.004
  -0.06250000  0.06250000  0.31250000       0.004
   0.06250000  0.18750000  0.31250000       0.004
   0.18750000  0.18750000  0.31250000       0.004
   0.31250000  0.18750000  0.31250000       0.004
   0.43750000  0.18750000  0.31250000       0.004
  -0.43750000  0.18750000  0.31250000       0.004
  -0.31250000  0.18750000  0.31250000       0.004
  -0.18750000  0.18750000  0.31250000       0.004
  -0.06250000  0.18750000  0.31250000       0.004
   0.06250000  0.31250000  0.31250000       0.004
   0.18750000  0.31250000  0.31250000       0.004
   0.31250000  0.31250000  0.31250000       0.004
   0.43750000  0.31250000  0.31250000       0.004
  -0.43750000  0.31250000  0.31250000       0.004
  -0.31250000  0.31250000  0.31250000       0.004
  -0.18750000  0.31250000  0.31250000       0.004
  -0.06250000  0.31250000  0.31250000       0.004
   0.06250000  0.43750000  0.31250000       0.004
   0.18750000  0.43750000  0.31250000       0.004
   0.31250000  0.43750000  0.31250000       0.004
   0.43750000  0.43750000  0.31250000       0.004
  -0.43750000  0.43750000  0.31250000       0.004
  -0.31250000  0.43750000  0.31250000       0.004
  -0.18750000  0.43750000  0.31250000       0.004
  -0.06250000  0.43750000  0.31250000       0.004
   0.06250000 -0.43750000  0.31250000       0.004
   0.18750000 -0.43750000  0.31250000       0.004
   0.31250000 -0.43750000  0.31250000       0.004
   0.43750000 -0.43750000  0.31250000       0.004
  -0.43750000 -0.43750000  0.31250000       0.004
  -0.31250000 -0.43750000  0.31250000       0.004
  -0.18750000 -0.43750000  0.31250000       0.004
  -0.06250000 -0.43750000  0.31250000       0.004
   0.06250000 -0.31250000  0.31250000       0.004
   0.18750000 -0.31250000  0.31250000       0.004
   0.31250000 -0.31250000  0.31250000       0.004
   0.43750000 -0.31250000  0.31250000       0.004
  -0.43750000 -0.31250000  0.31250000       0.004
  -0.31250000 -0.31250000  0.31250000       0.004
  -0.18750000 -0.31250000  0.31250000       0.004
  -0.06250000 -0.31250000  0.31250000       0.004
   0.06250000 -0.18750000  0.31250000       0.004
   0.18750000 -0.18750000  0.31250000       0.004
   0.31250000 -0.18750000  0.31250000       0.004
   0.43750000 -0.18750000  0.31250000       0.004
  -0.43750000 -0.18750000  0.31250000       0.004
  -0.31250000 -0.18750000  0.31250000       0.004
  -0.18750000 -0.18750000  0.31250000       0.004
  -0.06250000 -0.18750000  0.31250000       0.004
   0.06250000 -0.06250000  0.31250000       0.004
   0.18750000 -0.06250000  0.31250000       0.004
   0.31250000 -0.06250000  0.31250000       0.004
   0.43750000 -0.06250000  0.31250000       0.004
  -0.43750000 -0.06250000  0.31250000       0.004
  -0.31250000 -0.06250000  0.31250000       0.004
  -0.18750000 -0.06250000  0.31250000       0.004
  -0.06250000 -0.06250000  0.31250000       0.004
   0.06250000  0.06250000  0.43750000       0.004
   0.18750000  0.06250000  0.43750000       0.004
   0.31250000  0.06250000  0.43750000       0.004
   0.43750000  0.06250000  0.43750000       0.004
  -0.43750000  0.06250000  0.43750000       0.004
  -0.31250000  0.06250000  0.43750000       0.004
  -0.18750000  0.06250000  0.43750000       0.004
  -0.06250000  0.06250000  0.43750000       0.004
   0.06250000  0.18750000  0.43750000       0.004
   0.18750000  0.18750000  0.43750000       0.004
   0.31250000  0.18750000  0.43750000       0.004
   0.43750000  0.18750000  0.43750000       0.004
  -0.43750000  0.18750000  0.43750000       0.004
  -0.31250000  0.18750000  0.43750000       0.004
  -0.18750000  0.18750000  0.43750000       0.004
  -0.06250000  0.18750000  0.43750000       0.004
   0.06250000  0.31250000  0.43750000       0.004
   0.18750000  0.31250000  0.43750000       0.004
   0.31250000  0.31250000  0.43750000       0.004
   0.43750000  0.31250000  0.43750000       0.004
  -0.43750000  0.31250000  0.43750000       0.004
  -0.31250000  0.31250000  0.43750000       0.004
  -0.18750000  0.31250000  0.43750000       0.004
  -0.06250000  0.31250000  0.43750000       0.004
   0.06250000  0.43750000  0.43750000       0.004
   0.18750000  0.43750000  0.43750000       0.004
   0.31250000  0.43750000  0.43750000       0.004
   0.43750000  0.43750000  0.43750000       0.004
  -0.43750000  0.43750000  0.43750000       0.004
  -0.31250000  0.43750000  0.43750000       0.004
  -0.18750000  0.43750000  0.43750000       0.004
  -0.06250000  0.43750000  0.43750000       0.004
   0.06250000 -0.43750000  0.43750000       0.004
   0.18750000 -0.43750000  0.43750000       0.004
   0.31250000 -0.43750000  0.43750000       0.004
   0.43750000 -0.43750000  0.43750000       0.004
  -0.43750000 -0.43750000  0.43750000       0.004
  -0.31250000 -0.43750000  0.43750000       0.004
  -0.18750000 -0.43750000  0.43750000       0.004
  -0.06250000 -0.43750000  0.43750000       0.004
   0.06250000 -0.31250000  0.43750000       0.004
   0.18750000 -0.31250000  0.43750000       0.004
   0.31250000 -0.31250000  0.43750000       0.004
   0.43750000 -0.31250000  0.43750000       0.004
  -0.43750000 -0.31250000  0.43750000       0.004
  -0.31250000 -0.31250000  0.43750000       0.004
  -0.18750000 -0.31250000  0.43750000       0.004
  -0.06250000 -0.31250000  0.43750000       0.004
   0.06250000 -0.18750000  0.43750000       0.004
   0.18750000 -0.18750000  0.43750000       0.004
   0.31250000 -0.18750000  0.43750000       0.004
   0.43750000 -0.18750000  0.43750000       0.004
  -0.43750000 -0.18750000  0.43750000       0.004
  -0.31250000 -0.18750000  0.43750000       0.004
  -0.18750000 -0.18750000  0.43750000       0.004
  -0.06250000 -0.18750000  0.43750000       0.004
   0.06250000 -0.06250000  0.43750000       0.004
   0.18750000 -0.06250000  0.43750000       0.004
   0.31250000 -0.06250000  0.43750000       0.004
   0.43750000 -0.06250000  0.43750000       0.004
  -0.43750000 -0.06250000  0.43750000       0.004
  -0.31250000 -0.06250000  0.43750000       0.004
  -0.18750000 -0.06250000  0.43750000       0.004
  -0.06250000 -0.06250000  0.43750000       0.004
 
 position of ions in fractional coordinates (direct lattice) 
   0.00000000  0.00000000  0.00000000
   0.50000000  0.50000000  0.50000000
 
 position of ions in cartesian coordinates  (Angst):
   0.00000000  0.00000000  0.00000000
   1.43000000  1.43000000  1.43000000
 


--------------------------------------------------------------------------------------------------------


 k-point  1 :   0.0625 0.0625 0.0625  plane waves:     257
 k-point  2 :   0.1875 0.0625 0.0625  plane waves:     268
 k-point  3 :   0.3125 0.0625 0.0625  plane waves:     274
 k-point  4 :   0.4375 0.0625 0.0625  plane waves:     272
 k-point  5 :  -0.4375 0.0625 0.0625  plane waves:     272
 k-point  6 :  -0.3125 0.0625 0.0625  plane waves:     274
 k-point  7 :  -0.1875 0.0625 0.0625  plane waves:     268
 k-point  8 :  -0.0625 0.0625 0.0625  plane waves:     257
 k-point  9 :   0.0625 0.1875 0.0625  plane waves:     268
 k-point 10 :   0.1875 0.1875 0.0625  plane waves:     273
 k-point 11 :   0.3125 0.1875 0.0625  plane waves:     278
 k-point 12 :   0.4375 0.1875 0.0625  plane waves:     274
 k-point 13 :  -0.4375 0.1875 0.0625  plane waves:     274
 k-point 14 :  -0.3125 0.1875 0.0625  plane waves:     278
 k-point 15 :  -0.1875 0.1875 0.0625  plane waves:     273
 k-point 16 :  -0.0625 0.1875 0.0625  plane waves:     268
 k-point 17 :   0.0625 0.3125 0.0625  plane waves:     274
 k-point 18 :   0.1875 0.3125 0.0625  plane waves:     278
 k-point 19 :   0.3125 0.3125 0.0625  plane waves:     269
 k-point 20 :   0.4375 0.3125 0.0625  plane waves:     276
 k-point 21 :  -0.4375 0.3125 0.0625  plane waves:     276
 k-point 22 :  -0.3125 0.3125 0.0625  plane waves:     269
 k-point 23 :  -0.1875 0.3125 0.0625  plane waves:     278
 k-point 24 :  -0.0625 0.3125 0.0625  plane waves:     274
 k-point 25 :   0.0625 0.4375 0.0625  plane waves:     272
 k-point 26 :   0.1875 0.4375 0.0625  plane waves:     274
 k-point 27 :   0.3125 0.4375 0.0625  plane waves:     276
 k-point 28 :   0.4375 0.4375 0.0625  plane waves:     282
 k-point 29 :  -0.4375 0.4375 0.0625  plane waves:     282
 k-point 30 :  -0.3125 0.4375 0.0625  plane waves:     276
 k-point 31 :  -0.1875 0.4375 0.0625  plane waves:     274
 k-point 32 :  -0.0625 0.4375 0.0625  plane waves:     272
 k-point 33 :   0.0625-0.4375 0.0625  plane waves:     272
 k-point 34 :   0.1875-0.4375 0.0625  plane waves:     274
 k-point 35 :   0.3125-0.4375 0.0625  plane waves:     276
 k-point 36 :   0.4375-0.4375 0.0625  plane waves:     282
 k-point 37 :  -0.4375-0.4375 0.0625  plane waves:     282
 k-point 38 :  -0.3125-0.4375 0.0625  plane waves:     276
 k-point 39 :  -0.1875-0.4375 0.0625  plane waves:     274
 k-point 40 :  -0.0625-0.4375 0.0625  plane waves:     272
 k-point 41 :   0.0625-0.3125 0.0625  plane waves:     274
 k-point 42 :   0.1875-0.3125 0.0625  plane waves:     278
 k-point 43 :   0.3125-0.3125 0.0625  plane waves:     269
 k-point 44 :   0.4375-0.3125 0.0625  plane waves:     276
 k-point 45 :  -0.4375-0.3125 0.0625  plane waves:     276
 k-point 46 :  -0.3125-0.3125 0.0625  plane waves:     269
 k-point 47 :  -0.1875-0.3125 0.0625  plane waves:     278
 k-point 48 :  -0.0625-0.3125 0.0625  plane waves:     274
 k-point 49 :   0.0625-0.1875 0.0625  plane waves:     268
 k-point 50 :   0.1875-0.1875 0.0625  plane waves:     273
 k-point 51 :   0.3125-0.1875 0.0625  plane waves:     278
 k-point 52 :   0.4375-0.1875 0.0625  plane waves:     274
 k-point 53 :  -0.4375-0.1875 0.0625  plane waves:     274
 k-point 54 :  -0.3125-0.1875 0.0625  plane waves:     278
 k-point 55 :  -0.1875-0.1875 0.0625  plane waves:     273
 k-point 56 :  -0.0625-0.1875 0.0625  plane waves:     268
 k-point 57 :   0.0625-0.0625 0.0625  plane waves:     257
 k-point 58 :   0.1875-0.0625 0.0625  plane waves:     268
 k-point 59 :   0.3125-0.0625 0.0625  plane waves:     274
 k-point 60 :   0.4375-0.0625 0.0625  plane waves:     272
 k-point 61 :  -0.4375-0.0625 0.0625  plane waves:     272
 k-point 62 :  -0.3125-0.0625 0.0625  plane waves:     274
 k-point 63 :  -0.1875-0.0625 0.0625  plane waves:     268
 k-point 64 :  -0.0625-0.0625 0.0625  plane waves:     257
 k-point 65 :   0.0625 0.0625 0.1875  plane waves:     268
 k-point 66 :   0.1875 0.0625 0.1875  plane waves:     273
 k-point 67 :   0.3125 0.0625 0.1875  plane waves:     278
 k-point 68 :   0.4375 0.0625 0.1875  plane waves:     274
 k-point 69 :  -0.4375 0.0625 0.1875  plane waves:     274
 k-point 70 :  -0.3125 0.0625 0.1875  plane waves:     278
 k-point 71 :  -0.1875 0.0625 0.1875  plane waves:     273
 k-point 72 :  -0.0625 0.0625 0.1875  plane waves:     268
 k-point 73 :   0.0625 0.1875 0.1875  plane waves:     273
 k-point 74 :   0.1875 0.1875 0.1875  plane waves:     275
 k-point 75 :   0.3125 0.1875 0.1875  plane waves:     278
 k-point 76 :   0.4375 0.1875 0.1875  plane waves:     278
 k-point 77 :  -0.4375 0.1875 0.1875  plane waves:     278
 k-point 78 :  -0.3125 0.1875 0.1875  plane waves:     278
 k-point 79 :  -0.1875 0.1875 0.1875  plane waves:     275
 k-point 80 :  -0.0625 0.1875 0.1875  plane waves:     273
 k-point 81 :   0.0625 0.3125 0.1875  plane waves:     278
 k-point 82 :   0.1875 0.3125 0.1875  plane waves:     278
 k-point 83 :   0.3125 0.3125 0.1875  plane waves:     278
 k-point 84 :   0.4375 0.3125 0.1875  plane waves:     276
 k-point 85 :  -0.4375 0.3125 0.1875  plane waves:     276
 k-point 86 :  -0.3125 0.3125 0.1875  plane waves:     278
 k-point 87 :  -0.1875 0.3125 0.1875  plane waves:     278
 k-point 88 :  -0.0625 0.3125 0.1875  plane waves:     278
 k-point 89 :   0.0625 0.4375 0.1875  plane waves:     274
 k-point 90 :   0.1875 0.4375 0.1875  plane waves:     278
 k-point 91 :   0.3125 0.4375 0.1875  plane waves:     276
 k-point 92 :   0.4375 0.4375 0.1875  plane waves:     279
 k-point 93 :  -0.4375 0.4375 0.1875  plane waves:     279
 k-point 94 :  -0.3125 0.4375 0.1875  plane waves:     276
 k-point 95 :  -0.1875 0.4375 0.1875  plane waves:     278
 k-point 96 :  -0.0625 0.4375 0.1875  plane waves:     274
 k-point 97 :   0.0625-0.4375 0.1875  plane waves:     274
 k-point 98 :   0.1875-0.4375 0.1875  plane waves:     278
 k-point 99 :   0.3125-0.4375 0.1875  plane waves:     276
 k-point ** :   0.4375-0.4375 0.1875  plane waves:     279
 k-point ** :  -0.4375-0.4375 0.1875  plane waves:     279
 k-point ** :  -0.3125-0.4375 0.1875  plane waves:     276
 k-point ** :  -0.1875-0.4375 0.1875  plane waves:     278
 k-point ** :  -0.0625-0.4375 0.1875  plane waves:     274
 k-point ** :   0.0625-0.3125 0.1875  plane waves:     278
 k-point ** :   0.1875-0.3125 0.1875  plane waves:     278
 k-point ** :   0.3125-0.3125 0.1875  plane waves:     278
 k-point ** :   0.4375-0.3125 0.1875  plane waves:     276
 k-point ** :  -0.4375-0.3125 0.1875  plane waves:     276
 k-point ** :  -0.3125-0.3125 0.1875  plane waves:     278
 k-point ** :  -0.1875-0.3125 0.1875  plane waves:     278
 k-point ** :  -0.0625-0.3125 0.1875  plane waves:     278
 k-point ** :   0.0625-0.1875 0.1875  plane waves:     273
 k-point ** :   0.1875-0.1875 0.1875  plane waves:     275
 k-point ** :   0.3125-0.1875 0.1875  plane waves:     278
 k-point ** :   0.4375-0.1875 0.1875  plane waves:     278
 k-point ** :  -0.4375-0.1875 0.1875  plane waves:     278
 k-point ** :  -0.3125-0.1875 0.1875  plane waves:     278
 k-point ** :  -0.1875-0.1875 0.1875  plane waves:     275
 k-point ** :  -0.0625-0.1875 0.1875  plane waves:     273
 k-point ** :   0.0625-0.0625 0.1875  plane waves:     268
 k-point ** :   0.1875-0.0625 0.1875  plane waves:     273
 k-point ** :   0.3125-0.0625 0.1875  plane waves:     278
 k-point ** :   0.4375-0.0625 0.1875  plane waves:     274
 k-point ** :  -0.4375-0.0625 0.1875  plane waves:     274
 k-point ** :  -0.3125-0.0625 0.1875  plane waves:     278
 k-point ** :  -0.1875-0.0625 0.1875  plane waves:     273
 k-point ** :  -0.0625-0.0625 0.1875  plane waves:     268
 k-point ** :   0.0625 0.0625 0.3125  plane waves:     274
 k-point ** :   0.1875 0.0625 0.3125  plane waves:     278
 k-point ** :   0.3125 0.0625 0.3125  plane waves:     269
 k-point ** :   0.4375 0.0625 0.3125  plane waves:     276
 k-point ** :  -0.4375 0.0625 0.3125  plane waves:     276
 k-point ** :  -0.3125 0.0625 0.3125  plane waves:     269
 k-point ** :  -0.1875 0.0625 0.3125  plane waves:     278
 k-point ** :  -0.0625 0.0625 0.3125  plane waves:     274
 k-point ** :   0.0625 0.1875 0.3125  plane waves:     278
 k-point ** :   0.1875 0.1875 0.3125  plane waves:     278
 k-point ** :   0.3125 0.1875 0.3125  plane waves:     278
 k-point ** :   0.4375 0.1875 0.3125  plane waves:     276
 k-point ** :  -0.4375 0.1875 0.3125  plane waves:     276
 k-point ** :  -0.3125 0.1875 0.3125  plane waves:     278
 k-point ** :  -0.1875 0.1875 0.3125  plane waves:     278
 k-point ** :  -0.0625 0.1875 0.3125  plane waves:     278
 k-point ** :   0.0625 0.3125 0.3125  plane waves:     269
 k-point ** :   0.1875 0.3125 0.3125  plane waves:     278
 k-point ** :   0.3125 0.3125 0.3125  plane waves:     275
 k-point ** :   0.4375 0.3125 0.3125  plane waves:     280
 k-point ** :  -0.4375 0.3125 0.3125  plane waves:     280
 k-point ** :  -0.3125 0.3125 0.3125  plane waves:     275
 k-point ** :  -0.1875 0.3125 0.3125  plane waves:     278
 k-point ** :  -0.0625 0.3125 0.3125  plane waves:     269
 k-point ** :   0.0625 0.4375 0.3125  plane waves:     276
 k-point ** :   0.1875 0.4375 0.3125  plane waves:     276
 k-point ** :   0.3125 0.4375 0.3125  plane waves:     280
 k-point ** :   0.4375 0.4375 0.3125  plane waves:     286
 k-point ** :  -0.4375 0.4375 0.3125  plane waves:     286
 k-point ** :  -0.3125 0.4375 0.3125  plane waves:     280
 k-point ** :  -0.1875 0.4375 0.3125  plane waves:     276
 k-point ** :  -0.0625 0.4375 0.3125  plane waves:     276
 k-point ** :   0.0625-0.4375 0.3125  plane waves:     276
 k-point ** :   0.1875-0.4375 0.3125  plane waves:     276
 k-point ** :   0.3125-0.4375 0.3125  plane waves:     280
 k-point ** :   0.4375-0.4375 0.3125  plane waves:     286
 k-point ** :  -0.4375-0.4375 0.3125  plane waves:     286
 k-point ** :  -0.3125-0.4375 0.3125  plane waves:     280
 k-point ** :  -0.1875-0.4375 0.3125  plane waves:     276
 k-point ** :  -0.0625-0.4375 0.3125  plane waves:     276
 k-point ** :   0.0625-0.3125 0.3125  plane waves:     269
 k-point ** :   0.1875-0.3125 0.3125  plane waves:     278
 k-point ** :   0.3125-0.3125 0.3125  plane waves:     275
 k-point ** :   0.4375-0.3125 0.3125  plane waves:     280
 k-point ** :  -0.4375-0.3125 0.3125  plane waves:     280
 k-point ** :  -0.3125-0.3125 0.3125  plane waves:     275
 k-point ** :  -0.1875-0.3125 0.3125  plane waves:     278
 k-point ** :  -0.0625-0.3125 0.3125  plane waves:     269
 k-point ** :   0.0625-0.1875 0.3125  plane waves:     278
 k-point ** :   0.1875-0.1875 0.3125  plane waves:     278
 k-point ** :   0.3125-0.1875 0.3125  plane waves:     278
 k-point ** :   0.4375-0.1875 0.3125  plane waves:     276
 k-point ** :  -0.4375-0.1875 0.3125  plane waves:     276
 k-point ** :  -0.3125-0.1875 0.3125  plane waves:     278
 k-point ** :  -0.1875-0.1875 0.3125  plane waves:     278
 k-point ** :  -0.0625-0.1875 0.3125  plane waves:     278
 k-point ** :   0.0625-0.0625 0.3125  plane waves:     274
 k-point ** :   0.1875-0.0625 0.3125  plane waves:     278
 k-point ** :   0.3125-0.0625 0.3125  plane waves:     269
 k-point ** :   0.4375-0.0625 0.3125  plane waves:     276
 k-point ** :  -0.4375-0.0625 0.3125  plane waves:     276
 k-point ** :  -0.3125-0.0625 0.3125  plane waves:     269
 k-point ** :  -0.1875-0.0625 0.3125  plane waves:     278
 k-point ** :  -0.0625-0.0625 0.3125  plane waves:     274
 k-point ** :   0.0625 0.0625 0.4375  plane waves:     272
 k-point ** :   0.1875 0.0625 0.4375  plane waves:     274
 k-point ** :   0.3125 0.0625 0.4375  plane waves:     276
 k-point ** :   0.4375 0.0625 0.4375  plane waves:     282
 k-point ** :  -0.4375 0.0625 0.4375  plane waves:     282
 k-point ** :  -0.3125 0.0625 0.4375  plane waves:     276
 k-point ** :  -0.1875 0.0625 0.4375  plane waves:     274
 k-point ** :  -0.0625 0.0625 0.4375  plane waves:     272
 k-point ** :   0.0625 0.1875 0.4375  plane waves:     274
 k-point ** :   0.1875 0.1875 0.4375  plane waves:     278
 k-point ** :   0.3125 0.1875 0.4375  plane waves:     276
 k-point ** :   0.4375 0.1875 0.4375  plane waves:     279
 k-point ** :  -0.4375 0.1875 0.4375  plane waves:     279
 k-point ** :  -0.3125 0.1875 0.4375  plane waves:     276
 k-point ** :  -0.1875 0.1875 0.4375  plane waves:     278
 k-point ** :  -0.0625 0.1875 0.4375  plane waves:     274
 k-point ** :   0.0625 0.3125 0.4375  plane waves:     276
 k-point ** :   0.1875 0.3125 0.4375  plane waves:     276
 k-point ** :   0.3125 0.3125 0.4375  plane waves:     280
 k-point ** :   0.4375 0.3125 0.4375  plane waves:     286
 k-point ** :  -0.4375 0.3125 0.4375  plane waves:     286
 k-point ** :  -0.3125 0.3125 0.4375  plane waves:     280
 k-point ** :  -0.1875 0.3125 0.4375  plane waves:     276
 k-point ** :  -0.0625 0.3125 0.4375  plane waves:     276
 k-point ** :   0.0625 0.4375 0.4375  plane waves:     282
 k-point ** :   0.1875 0.4375 0.4375  plane waves:     279
 k-point ** :   0.3125 0.4375 0.4375  plane waves:     286
 k-point ** :   0.4375 0.4375 0.4375  plane waves:     283
 k-point ** :  -0.4375 0.4375 0.4375  plane waves:     283
 k-point ** :  -0.3125 0.4375 0.4375  plane waves:     286
 k-point ** :  -0.1875 0.4375 0.4375  plane waves:     279
 k-point ** :  -0.0625 0.4375 0.4375  plane waves:     282
 k-point ** :   0.0625-0.4375 0.4375  plane waves:     282
 k-point ** :   0.1875-0.4375 0.4375  plane waves:     279
 k-point ** :   0.3125-0.4375 0.4375  plane waves:     286
 k-point ** :   0.4375-0.4375 0.4375  plane waves:     283
 k-point ** :  -0.4375-0.4375 0.4375  plane waves:     283
 k-point ** :  -0.3125-0.4375 0.4375  plane waves:     286
 k-point ** :  -0.1875-0.4375 0.4375  plane waves:     279
 k-point ** :  -0.0625-0.4375 0.4375  plane waves:     282
 k-point ** :   0.0625-0.3125 0.4375  plane waves:     276
 k-point ** :   0.1875-0.3125 0.4375  plane waves:     276
 k-point ** :   0.3125-0.3125 0.4375  plane waves:     280
 k-point ** :   0.4375-0.3125 0.4375  plane waves:     286
 k-point ** :  -0.4375-0.3125 0.4375  plane waves:     286
 k-point ** :  -0.3125-0.3125 0.4375  plane waves:     280
 k-point ** :  -0.1875-0.3125 0.4375  plane waves:     276
 k-point ** :  -0.0625-0.3125 0.4375  plane waves:     276
 k-point ** :   0.0625-0.1875 0.4375  plane waves:     274
 k-point ** :   0.1875-0.1875 0.4375  plane waves:     278
 k-point ** :   0.3125-0.1875 0.4375  plane waves:     276
 k-point ** :   0.4375-0.1875 0.4375  plane waves:     279
 k-point ** :  -0.4375-0.1875 0.4375  plane waves:     279
 k-point ** :  -0.3125-0.1875 0.4375  plane waves:     276
 k-point ** :  -0.1875-0.1875 0.4375  plane waves:     278
 k-point ** :  -0.0625-0.1875 0.4375  plane waves:     274
 k-point ** :   0.0625-0.0625 0.4375  plane waves:     272
 k-point ** :   0.1875-0.0625 0.4375  plane waves:     274
 k-point ** :   0.3125-0.0625 0.4375  plane waves:     276
 k-point ** :   0.4375-0.0625 0.4375  plane waves:     282
[...]
      8       6.9083     -0.00000
      9       7.5334     -0.00000
     10       7.8517     -0.00000
     11       7.8947     -0.00000
     12       8.9622     -0.00000
     13      14.9672      0.00000
     14      16.7267      0.00000
     15      21.7674      0.00000
     16      23.4415      0.00000
     17      25.0848      0.00000
     18      26.1953      0.00000
     19      30.2441      0.00000
     20      31.4253      0.00000
     21      33.7687      0.00000
     22      34.0692      0.00000
     23      36.0203      0.00000
     24      36.6626      0.00000
     25      41.9034      0.00000
     26      43.1267      0.00000
     27      48.1108      0.00000
     28      48.3123      0.00000
     29      49.9555      0.00000
     30      50.7378      0.00000
     31      53.2312      0.00000
     32      53.8408      0.00000

 k-point   252 :       0.4375   -0.0625    0.4375
  band No.  band energies     occupation 
      1       2.0427      1.00000
      2       2.2583      1.00000
      3       4.0610      1.00000
      4       4.1172      1.00000
      5       5.5795      0.27760
      6       5.6459      0.07747
      7       7.0045     -0.00000
      8       7.1016     -0.00000
      9       7.4694     -0.00000
     10       7.7872     -0.00000
     11       8.2454     -0.00000
     12       8.6209     -0.00000
     13      14.0521      0.00000
     14      14.7977      0.00000
     15      22.7351      0.00000
     16      23.4549      0.00000
     17      25.2317      0.00000
     18      25.5587      0.00000
     19      29.6913      0.00000
     20      30.1320      0.00000
     21      33.5874      0.00000
     22      34.2054      0.00000
     23      37.4373      0.00000
     24      39.7150      0.00000
     25      42.1522      0.00000
     26      44.1970      0.00000
     27      46.4102      0.00000
     28      47.6453      0.00000
     29      51.7883      0.00000
     30      52.2421      0.00000
     31      53.5211      0.00000
     32      54.8677      0.00000

 k-point   253 :      -0.4375   -0.0625    0.4375
  band No.  band energies     occupation 
      1       2.0427      1.00000
      2       2.2583      1.00000
      3       4.0610      1.00000
      4       4.1172      1.00000
      5       5.5795      0.27760
      6       5.6459      0.07747
      7       7.0045     -0.00000
      8       7.1016     -0.00000
      9       7.4694     -0.00000
     10       7.7872     -0.00000
     11       8.2454     -0.00000
     12       8.6209     -0.00000
     13      14.0521      0.00000
     14      14.7977      0.00000
     15      22.7351      0.00000
     16      23.4549      0.00000
     17      25.2317      0.00000
     18      25.5587      0.00000
     19      29.6913      0.00000
     20      30.1320      0.00000
     21      33.5874      0.00000
     22      34.2054      0.00000
     23      37.4373      0.00000
     24      39.7150      0.00000
     25      42.1522      0.00000
     26      44.1970      0.00000
     27      46.4102      0.00000
     28      47.6453      0.00000
     29      51.7883      0.00000
     30      52.2421      0.00000
     31      53.5211      0.00000
     32      54.8677      0.00000

 k-point   254 :      -0.3125   -0.0625    0.4375
  band No.  band energies     occupation 
      1       1.7515      1.00000
      2       2.4731      1.00000
      3       4.2764      1.00000
      4       4.4265      1.00000
      5       4.8184      1.00000
      6       4.9597      1.00024
      7       6.7154     -0.00000
      8       6.9083     -0.00000
      9       7.5334     -0.00000
     10       7.8517     -0.00000
     11       7.8947     -0.00000
     12       8.9622     -0.00000
     13      14.9672      0.00000
     14      16.7267      0.00000
     15      21.7674      0.00000
     16      23.4415      0.00000
     17      25.0848      0.00000
     18      26.1953      0.00000
     19      30.2441      0.00000
     20      31.4253      0.00000
     21      33.7687      0.00000
     22      34.0692      0.00000
     23      36.0203      0.00000
     24      36.6626      0.00000
     25      41.9034      0.00000
     26      43.1267      0.00000
     27      48.1108      0.00000
     28      48.3123      0.00000
     29      49.9555      0.00000
     30      50.7378      0.00000
     31      53.2312      0.00000
     32      53.8408      0.00000

 k-point   255 :      -0.1875   -0.0625    0.4375
  band No.  band energies     occupation 
      1       1.2954      1.00000
      2       2.4991      1.00000
      3       4.3008      1.00000
      4       4.6403      1.00000
      5       4.8217      1.00000
      6       5.0272      1.00122
      7       6.3309     -0.00000
      8       6.4236     -0.00000
      9       7.1491     -0.00000
     10       7.5117     -0.00000
     11       7.8239     -0.00000
     12       8.8076     -0.00000
     13      17.3895      0.00000
     14      19.4582      0.00000
     15      20.9832      0.00000
     16      23.0953      0.00000
     17      24.9602      0.00000
     18      26.5300      0.00000
     19      29.1755      0.00000
     20      30.5543      0.00000
     21      33.1378      0.00000
     22      34.3454      0.00000
     23      36.6245      0.00000
     24      38.1668      0.00000
     25      40.7130      0.00000
     26      43.6936      0.00000
     27      44.8750      0.00000
     28      45.9448      0.00000
     29      48.0804      0.00000
     30      49.9317      0.00000
     31      51.8615      0.00000
     32      53.0223      0.00000

 k-point   256 :      -0.0625   -0.0625    0.4375
  band No.  band energies     occupation 
      1       0.9334      1.00000
      2       2.3128      1.00000
      3       4.3858      1.00000
      4       4.9871      1.00048
      5       5.2603      1.03417
      6       5.5929      0.22933
      7       5.8585     -0.01994
      8       5.9853     -0.00267
      9       6.5689     -0.00000
     10       7.0485     -0.00000
     11       7.8567     -0.00000
     12       8.5607     -0.00000
     13      20.3772      0.00000
     14      20.6957      0.00000
     15      22.3977      0.00000
     16      23.1527      0.00000
     17      24.2979      0.00000
     18      25.9156      0.00000
     19      25.9897      0.00000
     20      27.6465      0.00000
     21      35.4738      0.00000
     22      37.2913      0.00000
     23      38.0800      0.00000
     24      39.2162      0.00000
     25      40.7347      0.00000
     26      40.9010      0.00000
     27      42.5120      0.00000
     28      44.2676      0.00000
     29      47.1015      0.00000
     30      48.4156      0.00000
     31      49.5732      0.00000
     32      52.8050      0.00000


--------------------------------------------------------------------------------------------------------


 soft charge-density along one line, spin component           1
         0         1         2         3         4         5         6         7         8         9
 total charge-density along one line
 
 soft charge-density along one line, spin component           2
         0         1         2         3         4         5         6         7         8         9
 total charge-density along one line
 
 pseudopotential strength for first ion, spin component:           1
 -5.780   0.000   0.000   0.000  -0.000  -6.305   0.000   0.000
  0.000  -5.780  -0.000  -0.000   0.000   0.000  -6.305  -0.000
  0.000  -0.000  -5.950   0.000  -0.000   0.000  -0.000  -6.470
  0.000  -0.000   0.000  -5.780   0.000   0.000  -0.000   0.000
 -0.000   0.000  -0.000   0.000  -5.950  -0.000   0.000  -0.000
 -6.305   0.000   0.000   0.000  -0.000  -6.789   0.000   0.000
  0.000  -6.305  -0.000  -0.000   0.000   0.000  -6.789  -0.000
  0.000  -0.000  -6.470   0.000  -0.000   0.000  -0.000  -6.949
  0.000  -0.000   0.000  -6.305   0.000   0.000  -0.000   0.000
 -0.000   0.000  -0.000   0.000  -6.470  -0.000   0.000  -0.000
  0.000  -0.000   0.000  -0.000  -0.000   0.000  -0.000   0.000
 -0.000  -0.000   0.000  -0.000  -0.000   0.000  -0.000   0.000
 -0.000  -0.000  -0.000   0.000  -0.000  -0.000  -0.000  -0.000
  0.000   0.000  -0.000  -0.000   0.000   0.000   0.000  -0.000
  0.000   0.000   0.000  -0.000  -0.000   0.000   0.000   0.000
 -0.000  -0.000  -0.000  -0.000  -0.000  -0.000  -0.000  -0.000
 -0.000   0.000  -0.000  -0.000   0.000   0.000   0.000  -0.000
  0.000  -0.000   0.000  -0.000  -0.000   0.000   0.000   0.000
 pseudopotential strength for first ion, spin component:           2
 -4.267   0.000   0.000  -0.000   0.000  -4.841   0.000   0.000
  0.000  -4.267  -0.000  -0.000  -0.000   0.000  -4.841  -0.000
  0.000  -0.000  -4.045   0.000  -0.000   0.000  -0.000  -4.623
 -0.000  -0.000   0.000  -4.267   0.000  -0.000  -0.000   0.000
  0.000  -0.000  -0.000   0.000  -4.045   0.000  -0.000  -0.000
 -4.841   0.000   0.000  -0.000   0.000  -5.371   0.000   0.000
  0.000  -4.841  -0.000  -0.000  -0.000   0.000  -5.371  -0.000
  0.000  -0.000  -4.623   0.000  -0.000   0.000  -0.000  -5.158
 -0.000  -0.000   0.000  -4.841   0.000  -0.000  -0.000   0.000
  0.000  -0.000  -0.000   0.000  -4.623   0.000  -0.000  -0.000
 -0.000   0.000   0.000  -0.000  -0.000   0.000   0.000   0.000
 -0.000   0.000   0.000  -0.000  -0.000   0.000   0.000   0.000
 -0.000  -0.000  -0.000   0.000  -0.000  -0.000  -0.000  -0.000
  0.000   0.000  -0.000  -0.000   0.000   0.000   0.000  -0.000
  0.000   0.000   0.000  -0.000  -0.000   0.000   0.000   0.000
 -0.000  -0.000  -0.000   0.000  -0.000  -0.000  -0.000  -0.000
  0.000   0.000  -0.000  -0.000   0.000   0.000   0.000  -0.000
  0.000   0.000   0.000  -0.000  -0.000   0.000   0.000   0.000
 total augmentation occupancy for first ion, spin component:           1
  2.295   0.000   0.000   0.000   0.000  -1.230  -0.000  -0.000  -0.000  -0.000   0.000  -0.000   0.000   0.000   0.000  -0.000
  0.000   2.295  -0.000   0.000   0.000  -0.000  -1.230   0.000   0.000  -0.000  -0.000   0.000   0.000  -0.000   0.000  -0.000
  0.000  -0.000   3.576   0.000  -0.000  -0.000   0.000  -2.252   0.000   0.000  -0.000   0.000  -0.000  -0.000  -0.000   0.000
  0.000   0.000   0.000   2.295  -0.000   0.000  -0.000   0.000  -1.230   0.000   0.000  -0.000  -0.000   0.000  -0.000  -0.000
  0.000   0.000  -0.000  -0.000   3.576   0.000  -0.000   0.000   0.000  -2.252   0.000  -0.000   0.000   0.000  -0.000  -0.000
 -1.230  -0.000  -0.000   0.000   0.000   1.556  -0.000   0.000   0.000   0.000   0.000  -0.000  -0.000  -0.000  -0.000   0.000
 -0.000  -1.230   0.000  -0.000  -0.000  -0.000   1.556  -0.000   0.000   0.000   0.000  -0.000  -0.000   0.000  -0.000   0.000
 -0.000   0.000  -2.252   0.000   0.000   0.000  -0.000   2.189  -0.000  -0.000   0.000  -0.000   0.000   0.000   0.000  -0.000
 -0.000   0.000   0.000  -1.230   0.000   0.000   0.000  -0.000   1.556  -0.000  -0.000   0.000   0.000   0.000   0.000  -0.000
 -0.000  -0.000   0.000   0.000  -2.252   0.000   0.000  -0.000  -0.000   2.189  -0.000   0.000   0.000  -0.000  -0.000  -0.000
  0.000  -0.000  -0.000   0.000   0.000   0.000   0.000   0.000  -0.000  -0.000   2.360  -0.272   0.000  -0.000   0.000   0.000
 -0.000   0.000   0.000  -0.000  -0.000  -0.000  -0.000  -0.000   0.000   0.000  -0.272   0.037  -0.000   0.000  -0.000   0.000
  0.000   0.000  -0.000  -0.000   0.000  -0.000  -0.000   0.000   0.000   0.000   0.000  -0.000   0.278  -0.000  -0.000  -0.024
  0.000  -0.000  -0.000   0.000   0.000  -0.000   0.000   0.000   0.000  -0.000  -0.000   0.000  -0.000   0.278  -0.000   0.000
  0.000   0.000  -0.000  -0.000  -0.000  -0.000  -0.000   0.000   0.000  -0.000   0.000  -0.000  -0.000  -0.000   0.278   0.000
 -0.000  -0.000   0.000  -0.000  -0.000   0.000   0.000  -0.000  -0.000  -0.000   0.000   0.000  -0.024   0.000   0.000   0.002
 -0.000   0.000   0.000  -0.000  -0.000   0.000  -0.000  -0.000  -0.000   0.000   0.000  -0.000   0.000  -0.024   0.000  -0.000
 -0.000  -0.000   0.000   0.000   0.000   0.000   0.000  -0.000  -0.000  -0.000  -0.000   0.000   0.000  -0.000  -0.024  -0.000
 total augmentation occupancy for first ion, spin component:           2
  1.953   0.000   0.000  -0.000   0.000  -0.820  -0.000  -0.000   0.000  -0.000   0.000  -0.000   0.000   0.000  -0.000  -0.000
  0.000   1.953   0.000   0.000   0.000  -0.000  -0.820  -0.000   0.000  -0.000  -0.000   0.000  -0.000  -0.000  -0.000   0.000
  0.000   0.000   3.103   0.000  -0.000  -0.000  -0.000  -1.389  -0.000   0.000  -0.000   0.000   0.000  -0.000  -0.000   0.000
 -0.000   0.000   0.000   1.953  -0.000   0.000   0.000  -0.000  -0.820  -0.000  -0.000   0.000   0.000   0.000   0.000  -0.000
  0.000   0.000  -0.000  -0.000   3.103   0.000  -0.000   0.000  -0.000  -1.389  -0.000   0.000   0.000   0.000  -0.000  -0.000
 -0.820  -0.000  -0.000   0.000   0.000   0.102   0.000  -0.000  -0.000  -0.000   0.000  -0.000  -0.000   0.000   0.000  -0.000
 -0.000  -0.820  -0.000   0.000  -0.000   0.000   0.102   0.000  -0.000   0.000   0.000  -0.000   0.000  -0.000   0.000  -0.000
 -0.000  -0.000  -1.389  -0.000   0.000  -0.000   0.000   0.402   0.000  -0.000  -0.000   0.000  -0.000  -0.000   0.000   0.000
  0.000   0.000  -0.000  -0.820  -0.000  -0.000  -0.000   0.000   0.102   0.000   0.000  -0.000  -0.000  -0.000  -0.000   0.000
 -0.000  -0.000   0.000  -0.000  -1.389  -0.000   0.000  -0.000   0.000   0.402   0.000   0.000  -0.000  -0.000   0.000   0.000
  0.000  -0.000  -0.000  -0.000  -0.000   0.000   0.000  -0.000   0.000   0.000  -0.324   0.099  -0.000   0.000  -0.000   0.000
 -0.000   0.000   0.000   0.000   0.000  -0.000  -0.000   0.000  -0.000   0.000   0.099  -0.017   0.000  -0.000   0.000  -0.000
  0.000  -0.000   0.000   0.000   0.000  -0.000   0.000  -0.000  -0.000  -0.000  -0.000   0.000  -0.032  -0.000  -0.000   0.006
  0.000  -0.000  -0.000   0.000   0.000   0.000  -0.000  -0.000  -0.000  -0.000   0.000  -0.000  -0.000  -0.032  -0.000   0.000
 -0.000  -0.000  -0.000   0.000  -0.000   0.000   0.000   0.000  -0.000   0.000  -0.000   0.000  -0.000  -0.000  -0.032   0.000
 -0.000   0.000   0.000  -0.000  -0.000  -0.000  -0.000   0.000   0.000   0.000   0.000  -0.000   0.006   0.000   0.000  -0.001
  0.000   0.000   0.000  -0.000  -0.000  -0.000   0.000   0.000   0.000  -0.000  -0.000   0.000  -0.000   0.006   0.000  -0.000
  0.000   0.000   0.000  -0.000   0.000  -0.000  -0.000  -0.000   0.000  -0.000  -0.000  -0.000   0.000   0.000   0.006  -0.000


------------------------ aborting loop because EDIFF is reached ----------------------------------------


    CHARGE:  cpu time    0.0160: real time    0.0171
    FORLOC:  cpu time    0.0000: real time    0.0000
    FORNL :  cpu time    0.0650: real time    0.0646
    STRESS:  cpu time    0.3279: real time    0.3275
    FORCOR:  cpu time    0.0020: real time    0.0026
    FORHAR:  cpu time    0.0010: real time    0.0004
    MIXING:  cpu time    0.0000: real time    0.0003
    OFIELD:  cpu time    0.0000: real time    0.0000

  FORCE on cell =-STRESS in cart. coord.  units (eV):
  Direction    XX          YY          ZZ          XY          YZ          ZX
  --------------------------------------------------------------------------------------
  Alpha Z   118.17525   118.17525   118.17525
  Ewald    -390.89368  -390.89368  -390.89368     0.00000     0.00000     0.00000
  Hartree    64.94227    64.94227    64.94227     0.00000     0.00000     0.00000
  E(xc)     -79.30452   -79.30452   -79.30452    -0.00000    -0.00000    -0.00000
  Local     116.36149   116.36149   116.36149    -0.00000    -0.00000    -0.00000
  n-local   -52.38203   -52.38203   -52.38203     0.00000    -0.00000    -0.00000
  augment    77.53891    77.53891    77.53891    -0.00000    -0.00000     0.00000
  Kinetic   144.79833   144.79833   144.79833    -0.00000    -0.00000    -0.00000
  Fock        0.00000     0.00000     0.00000     0.00000     0.00000     0.00000
  -------------------------------------------------------------------------------------
  Total      -0.76397    -0.76397    -0.76397    -0.00000    -0.00000    -0.00000
  in kB     -52.32247   -52.32249   -52.32247    -0.00002    -0.00002    -0.00001
  external pressure =      -52.32 kB  Pullay stress =        0.00 kB


 VOLUME and BASIS-vectors are now :
 -----------------------------------------------------------------------------
  energy-cutoff  :      300.00
  volume of cell :       23.39
      direct lattice vectors                 reciprocal lattice vectors
     2.860000000  0.000000000  0.000000000     0.349650350  0.000000000  0.000000000
     0.000000000  2.860000000  0.000000000     0.000000000  0.349650350  0.000000000
     0.000000000  0.000000000  2.860000000     0.000000000  0.000000000  0.349650350

  length of vectors
     2.860000000  2.860000000  2.860000000     0.349650350  0.349650350  0.349650350


 FORCES acting on ions
    electron-ion (+dipol)            ewald-force                    non-local-force                 convergence-correction
 -----------------------------------------------------------------------------------------------
   -.232E-06 0.884E-07 -.147E-06   0.219E-14 -.742E-15 -.130E-14   -.121E-06 0.163E-06 0.320E-08   0.353E-06 -.187E-06 0.200E-06
   0.204E-06 -.208E-06 0.964E-07   -.209E-14 0.143E-14 -.194E-15   0.714E-07 -.104E-07 0.103E-06   -.230E-06 0.239E-06 -.832E-07
 -----------------------------------------------------------------------------------------------
   -.273E-07 -.120E-06 -.507E-07   0.102E-15 0.685E-15 -.150E-14   -.496E-07 0.152E-06 0.106E-06   0.123E-06 0.525E-07 0.117E-06
 
 
 POSITION                                       TOTAL-FORCE (eV/Angst)
 -----------------------------------------------------------------------------------
      0.00000      0.00000      0.00000        -0.000000      0.000000     -0.000000
      1.43000      1.43000      1.43000         0.000000     -0.000000      0.000000
 -----------------------------------------------------------------------------------
    total drift:                                0.000000      0.000000      0.000000


--------------------------------------------------------------------------------------------------------



  FREE ENERGIE OF THE ION-ELECTRON SYSTEM (eV)
  ---------------------------------------------------
  free  energy   TOTEN  =       -16.47985144 eV

  energy  without entropy=      -16.47548572  energy(sigma->0) =      -16.47839620
 


--------------------------------------------------------------------------------------------------------


    POTLOK:  cpu time    0.0100: real time    0.0100


--------------------------------------------------------------------------------------------------------




--------------------------------------------------------------------------------------------------------


  
 reached required accuracy - stopping structural energy minimisation
     LOOP+:  cpu time  122.7383: real time  123.1527
    4ORBIT:  cpu time    0.0000: real time    0.0000

 total amount of memory used by VASP on root node    43790. kBytes
========================================================================

   base      :      30000. kBytes
   nonl-proj :      10626. kBytes
   fftplans  :         32. kBytes
   grid      :        187. kBytes
   one-center:         62. kBytes
   wavefun   :       2883. kBytes
 
  
  
 General timing and accounting informations for this job:
 ========================================================
  
                  Total CPU time used (sec):      124.835
                            User time (sec):      118.800
                          System time (sec):        6.035
                         Elapsed time (sec):      125.892
  
                   Maximum memory used (kb):       86836.
                   Average memory used (kb):           0.
  
                          Minor page faults:      2574991
                          Major page faults:            0
                 Voluntary context switches:         5136
