<?xml version="1.0" encoding="ISO-8859-1"?>
<modeling>
 <generator>
  <i name="program" type="string">vasp </i>
  <i name="version" type="string">5.4.1  </i>
  <i name="subversion" type="string">24Jun15 (build May 02 2016 14:41:14) complex                          parallel </i>
  <i name="platform" type="string">IFC91_ompi </i>
  <i name="date" type="string">2025 11 12 </i>
  <i name="time" type="string">12:03:15 </i>
 </generator>
 <incar>
  <i type="string" name="SYSTEM"> Fe Bulk</i>
  <i type="int" name="ISTART">     0</i>
  <i type="string" name="PREC">normal   ! precision of the calculation</i>
  <i type="string" name="ALGO"> N        ! Electronic minimisation algo</i>
  <i type="int" name="ISPIN">     2</i>
  <i type="int" name="MAXMIX">    40</i>
  <i type="int" name="NELMIN">     6</i>
  <i type="int" name="IBRION">     2</i>
  <i name="EDIFF">      0.00001000</i>
  <i name="EDIFFG">     -0.01000000</i>
  <i type="int" name="NSW">    20</i>
  <i type="int" name="ISYM">     0</i>
  <i type="int" name="NBLOCK">     1</i>
  <i name="ENCUT">    600.00000000</i>
  <i name="POTIM">      0.50000000</i>
  <i type="int" name="ISMEAR">     1</i>
  <i name="SIGMA">      0.20000000</i>
  <i type="int" name="NWRITE">     2</i>
  <i type="logical" name="LWAVE"> F  </i>
  <i type="logical" name="LCHARG"> F  </i>
  <v type="int" name="KPOINT_BSE">    -1     0     0     0</v>
  <i type="string" name="GGA"> PE       ! Perdew-Burke-Ernzerhof XC (P</i>
 </incar>
 <kpoints>
  <generation param="Monkhorst-Pack">
   <v type="int" name="divisions">       8        8        8 </v>
   <v name="usershift">      0.00000000       0.00000000       0.00000000 </v>
   <v name="genvec1">      0.12500000       0.00000000       0.00000000 </v>
   <v name="genvec2">      0.00000000       0.12500000       0.00000000 </v>
   <v name="genvec3">      0.00000000       0.00000000       0.12500000 </v>
   <v name="shift">      0.50000000       0.50000000       0.50000000 </v>
  </generation>
  <varray name="kpointlist" >
   <v>       0.06250000       0.06250000       0.06250000 </v>
   <v>       0.18750000       0.06250000       0.06250000 </v>
   <v>       0.31250000       0.06250000       0.06250000 </v>
   <v>       0.43750000       0.06250000       0.06250000 </v>
   <v>      -0.43750000       0.06250000       0.06250000 </v>
   <v>      -0.31250000       0.06250000       0.06250000 </v>
   <v>      -0.18750000       0.06250000       0.06250000 </v>
   <v>      -0.06250000       0.06250000       0.06250000 </v>
   <v>       0.06250000       0.18750000       0.06250000 </v>
   <v>       0.18750000       0.18750000       0.06250000 </v>
   <v>       0.31250000       0.18750000       0.06250000 </v>
   <v>       0.43750000       0.18750000       0.06250000 </v>
   <v>      -0.43750000       0.18750000       0.06250000 </v>
   <v>      -0.31250000       0.18750000       0.06250000 </v>
   <v>      -0.18750000       0.18750000       0.06250000 </v>
   <v>      -0.06250000       0.18750000       0.06250000 </v>
   <v>       0.06250000       0.31250000       0.06250000 </v>
   <v>       0.18750000       0.31250000       0.06250000 </v>
   <v>       0.31250000       0.31250000       0.06250000 </v>
   <v>       0.43750000       0.31250000       0.06250000 </v>
   <v>      -0.43750000       0.31250000       0.06250000 </v>
   <v>      -0.31250000       0.31250000       0.06250000 </v>
   <v>      -0.18750000       0.31250000       0.06250000 </v>
   <v>      -0.06250000       0.31250000       0.06250000 </v>
   <v>       0.06250000       0.43750000       0.06250000 </v>
   <v>       0.18750000       0.43750000       0.06250000 </v>
   <v>       0.31250000       0.43750000       0.06250000 </v>
   <v>       0.43750000       0.43750000       0.06250000 </v>
   <v>      -0.43750000       0.43750000       0.06250000 </v>
   <v>      -0.31250000       0.43750000       0.06250000 </v>
   <v>      -0.18750000       0.43750000       0.06250000 </v>
   <v>      -0.06250000       0.43750000       0.06250000 </v>
   <v>       0.06250000      -0.43750000       0.06250000 </v>
   <v>       0.18750000      -0.43750000       0.06250000 </v>
   <v>       0.31250000      -0.43750000       0.06250000 </v>
   <v>       0.43750000      -0.43750000       0.06250000 </v>
   <v>      -0.43750000      -0.43750000       0.06250000 </v>
   <v>      -0.31250000      -0.43750000       0.06250000 </v>
   <v>      -0.18750000      -0.43750000       0.06250000 </v>
   <v>      -0.06250000      -0.43750000       0.06250000 </v>
   <v>       0.06250000      -0.31250000       0.06250000 </v>
   <v>       0.18750000      -0.31250000       0.06250000 </v>
   <v>       0.31250000      -0.31250000       0.06250000 </v>
   <v>       0.43750000      -0.31250000       0.06250000 </v>
   <v>      -0.43750000      -0.31250000       0.06250000 </v>
   <v>      -0.31250000      -0.31250000       0.06250000 </v>
   <v>      -0.18750000      -0.31250000       0.06250000 </v>
   <v>      -0.06250000      -0.31250000       0.06250000 </v>
   <v>       0.06250000      -0.18750000       0.06250000 </v>
   <v>       0.18750000      -0.18750000       0.06250000 </v>
   <v>       0.31250000      -0.18750000       0.06250000 </v>
   <v>       0.43750000      -0.18750000       0.06250000 </v>
   <v>      -0.43750000      -0.18750000       0.06250000 </v>
   <v>      -0.31250000      -0.18750000       0.06250000 </v>
   <v>      -0.18750000      -0.18750000       0.06250000 </v>
   <v>      -0.06250000      -0.18750000       0.06250000 </v>
   <v>       0.06250000      -0.06250000       0.06250000 </v>
   <v>       0.18750000      -0.06250000       0.06250000 </v>
   <v>       0.31250000      -0.06250000       0.06250000 </v>
   <v>       0.43750000      -0.06250000       0.06250000 </v>
   <v>      -0.43750000      -0.06250000       0.06250000 </v>
   <v>      -0.31250000      -0.06250000       0.06250000 </v>
   <v>      -0.18750000      -0.06250000       0.06250000 </v>
   <v>      -0.06250000      -0.06250000       0.06250000 </v>
   <v>       0.06250000       0.06250000       0.18750000 </v>
   <v>       0.18750000       0.06250000       0.18750000 </v>
   <v>       0.31250000       0.06250000       0.18750000 </v>
   <v>       0.43750000       0.06250000       0.18750000 </v>
   <v>      -0.43750000       0.06250000       0.18750000 </v>
   <v>      -0.31250000       0.06250000       0.18750000 </v>
   <v>      -0.18750000       0.06250000       0.18750000 </v>
   <v>      -0.06250000       0.06250000       0.18750000 </v>
   <v>       0.06250000       0.18750000       0.18750000 </v>
   <v>       0.18750000       0.18750000       0.18750000 </v>
   <v>       0.31250000       0.18750000       0.18750000 </v>
   <v>       0.43750000       0.18750000       0.18750000 </v>
   <v>      -0.43750000       0.18750000       0.18750000 </v>
   <v>      -0.31250000       0.18750000       0.18750000 </v>
   <v>      -0.18750000       0.18750000       0.18750000 </v>
   <v>      -0.06250000       0.18750000       0.18750000 </v>
   <v>       0.06250000       0.31250000       0.18750000 </v>
   <v>       0.18750000       0.31250000       0.18750000 </v>
   <v>       0.31250000       0.31250000       0.18750000 </v>
   <v>       0.43750000       0.31250000       0.18750000 </v>
   <v>      -0.43750000       0.31250000       0.18750000 </v>
   <v>      -0.31250000       0.31250000       0.18750000 </v>
   <v>      -0.18750000       0.31250000       0.18750000 </v>
   <v>      -0.06250000       0.31250000       0.18750000 </v>
   <v>       0.06250000       0.43750000       0.18750000 </v>
   <v>       0.18750000       0.43750000       0.18750000 </v>
   <v>       0.31250000       0.43750000       0.18750000 </v>
   <v>       0.43750000       0.43750000       0.18750000 </v>
   <v>      -0.43750000       0.43750000       0.18750000 </v>
   <v>      -0.31250000       0.43750000       0.18750000 </v>
   <v>      -0.18750000       0.43750000       0.18750000 </v>
   <v>      -0.06250000       0.43750000       0.18750000 </v>
   <v>       0.06250000      -0.43750000       0.18750000 </v>
   <v>       0.18750000      -0.43750000       0.18750000 </v>
   <v>       0.31250000      -0.43750000       0.18750000 </v>
   <v>       0.43750000      -0.43750000       0.18750000 </v>
   <v>      -0.43750000      -0.43750000       0.18750000 </v>
   <v>      -0.31250000      -0.43750000       0.18750000 </v>
   <v>      -0.18750000      -0.43750000       0.18750000 </v>
   <v>      -0.06250000      -0.43750000       0.18750000 </v>
   <v>       0.06250000      -0.31250000       0.18750000 </v>
   <v>       0.18750000      -0.31250000       0.18750000 </v>
   <v>       0.31250000      -0.31250000       0.18750000 </v>
   <v>       0.43750000      -0.31250000       0.18750000 </v>
   <v>      -0.43750000      -0.31250000       0.18750000 </v>
   <v>      -0.31250000      -0.31250000       0.18750000 </v>
   <v>      -0.18750000      -0.31250000       0.18750000 </v>
   <v>      -0.06250000      -0.31250000       0.18750000 </v>
   <v>       0.06250000      -0.18750000       0.18750000 </v>
   <v>       0.18750000      -0.18750000       0.18750000 </v>
   <v>       0.31250000      -0.18750000       0.18750000 </v>
   <v>       0.43750000      -0.18750000       0.18750000 </v>
   <v>      -0.43750000      -0.18750000       0.18750000 </v>
   <v>      -0.31250000      -0.18750000       0.18750000 </v>
   <v>      -0.18750000      -0.18750000       0.18750000 </v>
   <v>      -0.06250000      -0.18750000       0.18750000 </v>
   <v>       0.06250000      -0.06250000       0.18750000 </v>
   <v>       0.18750000      -0.06250000       0.18750000 </v>
   <v>       0.31250000      -0.06250000       0.18750000 </v>
   <v>       0.43750000      -0.06250000       0.18750000 </v>
   <v>      -0.43750000      -0.06250000       0.18750000 </v>
   <v>      -0.31250000      -0.06250000       0.18750000 </v>
   <v>      -0.18750000      -0.06250000       0.18750000 </v>
   <v>      -0.06250000      -0.06250000       0.18750000 </v>
   <v>       0.06250000       0.06250000       0.31250000 </v>
   <v>       0.18750000       0.06250000       0.31250000 </v>
   <v>       0.31250000       0.06250000       0.31250000 </v>
   <v>       0.43750000       0.06250000       0.31250000 </v>
   <v>      -0.43750000       0.06250000       0.31250000 </v>
   <v>      -0.31250000       0.06250000       0.31250000 </v>
   <v>      -0.18750000       0.06250000       0.31250000 </v>
   <v>      -0.06250000       0.06250000       0.31250000 </v>
   <v>       0.06250000       0.18750000       0.31250000 </v>
   <v>       0.18750000       0.18750000       0.31250000 </v>
   <v>       0.31250000       0.18750000       0.31250000 </v>
   <v>       0.43750000       0.18750000       0.31250000 </v>
   <v>      -0.43750000       0.18750000       0.31250000 </v>
   <v>      -0.31250000       0.18750000       0.31250000 </v>
   <v>      -0.18750000       0.18750000       0.31250000 </v>
   <v>      -0.06250000       0.18750000       0.31250000 </v>
   <v>       0.06250000       0.31250000       0.31250000 </v>
   <v>       0.18750000       0.31250000       0.31250000 </v>
   <v>       0.31250000       0.31250000       0.31250000 </v>
   <v>       0.43750000       0.31250000       0.31250000 </v>
   <v>      -0.43750000       0.31250000       0.31250000 </v>
   <v>      -0.31250000       0.31250000       0.31250000 </v>
   <v>      -0.18750000       0.31250000       0.31250000 </v>
   <v>      -0.06250000       0.31250000       0.31250000 </v>
   <v>       0.06250000       0.43750000       0.31250000 </v>
   <v>       0.18750000       0.43750000       0.31250000 </v>
   <v>       0.31250000       0.43750000       0.31250000 </v>
   <v>       0.43750000       0.43750000       0.31250000 </v>
   <v>      -0.43750000       0.43750000       0.31250000 </v>
   <v>      -0.31250000       0.43750000       0.31250000 </v>
   <v>      -0.18750000       0.43750000       0.31250000 </v>
   <v>      -0.06250000       0.43750000       0.31250000 </v>
   <v>       0.06250000      -0.43750000       0.31250000 </v>
   <v>       0.18750000      -0.43750000       0.31250000 </v>
   <v>       0.31250000      -0.43750000       0.31250000 </v>
   <v>       0.43750000      -0.43750000       0.31250000 </v>
   <v>      -0.43750000      -0.43750000       0.31250000 </v>
   <v>      -0.31250000      -0.43750000       0.31250000 </v>
   <v>      -0.18750000      -0.43750000       0.31250000 </v>
   <v>      -0.06250000      -0.43750000       0.31250000 </v>
   <v>       0.06250000      -0.31250000       0.31250000 </v>
   <v>       0.18750000      -0.31250000       0.31250000 </v>
   <v>       0.31250000      -0.31250000       0.31250000 </v>
   <v>       0.43750000      -0.31250000       0.31250000 </v>
   <v>      -0.43750000      -0.31250000       0.31250000 </v>
   <v>      -0.31250000      -0.31250000       0.31250000 </v>
   <v>      -0.18750000      -0.31250000       0.31250000 </v>
   <v>      -0.06250000      -0.31250000       0.31250000 </v>
   <v>       0.06250000      -0.18750000       0.31250000 </v>
   <v>       0.18750000      -0.18750000       0.31250000 </v>
   <v>       0.31250000      -0.18750000       0.31250000 </v>
   <v>       0.43750000      -0.18750000       0.31250000 </v>
   <v>      -0.43750000      -0.18750000       0.31250000 </v>
   <v>      -0.31250000      -0.18750000       0.31250000 </v>
   <v>      -0.18750000      -0.18750000       0.31250000 </v>
   <v>      -0.06250000      -0.18750000       0.31250000 </v>
   <v>       0.06250000      -0.06250000       0.31250000 </v>
   <v>       0.18750000      -0.06250000       0.31250000 </v>
   <v>       0.31250000      -0.06250000       0.31250000 </v>
   <v>       0.43750000      -0.06250000       0.31250000 </v>
   <v>      -0.43750000      -0.06250000       0.31250000 </v>
   <v>      -0.31250000      -0.06250000       0.31250000 </v>
   <v>      -0.18750000      -0.06250000       0.31250000 </v>
   <v>      -0.06250000      -0.06250000       0.31250000 </v>
   <v>       0.06250000       0.06250000       0.43750000 </v>
   <v>       0.18750000       0.06250000       0.43750000 </v>
   <v>       0.31250000       0.06250000       0.43750000 </v>
   <v>       0.43750000       0.06250000       0.43750000 </v>
   <v>      -0.43750000       0.06250000       0.43750000 </v>
   <v>      -0.31250000       0.06250000       0.43750000 </v>
   <v>      -0.18750000       0.06250000       0.43750000 </v>
   <v>      -0.06250000       0.06250000       0.43750000 </v>
   <v>       0.06250000       0.18750000       0.43750000 </v>
   <v>       0.18750000       0.18750000       0.43750000 </v>
   <v>       0.31250000       0.18750000       0.43750000 </v>
   <v>       0.43750000       0.18750000       0.43750000 </v>
   <v>      -0.43750000       0.18750000       0.43750000 </v>
   <v>      -0.31250000       0.18750000       0.43750000 </v>
   <v>      -0.18750000       0.18750000       0.43750000 </v>
   <v>      -0.06250000       0.18750000       0.43750000 </v>
   <v>       0.06250000       0.31250000       0.43750000 </v>
   <v>       0.18750000       0.31250000       0.43750000 </v>
   <v>       0.31250000       0.31250000       0.43750000 </v>
   <v>       0.43750000       0.31250000       0.43750000 </v>
   <v>      -0.43750000       0.31250000       0.43750000 </v>
   <v>      -0.31250000       0.31250000       0.43750000 </v>
   <v>      -0.18750000       0.31250000       0.43750000 </v>
   <v>      -0.06250000       0.31250000       0.43750000 </v>
   <v>       0.06250000       0.43750000       0.43750000 </v>
   <v>       0.18750000       0.43750000       0.43750000 </v>
   <v>       0.31250000       0.43750000       0.43750000 </v>
   <v>       0.43750000       0.43750000       0.43750000 </v>
   <v>      -0.43750000       0.43750000       0.43750000 </v>
   <v>      -0.31250000       0.43750000       0.43750000 </v>
   <v>      -0.18750000       0.43750000       0.43750000 </v>
   <v>      -0.06250000       0.43750000       0.43750000 </v>
   <v>       0.06250000      -0.43750000       0.43750000 </v>
   <v>       0.18750000      -0.43750000       0.43750000 </v>
   <v>       0.31250000      -0.43750000       0.43750000 </v>
   <v>       0.43750000      -0.43750000       0.43750000 </v>
   <v>      -0.43750000      -0.43750000       0.43750000 </v>
   <v>      -0.31250000      -0.43750000       0.43750000 </v>
   <v>      -0.18750000      -0.43750000       0.43750000 </v>
   <v>      -0.06250000      -0.43750000       0.43750000 </v>
   <v>       0.06250000      -0.31250000       0.43750000 </v>
   <v>       0.18750000      -0.31250000       0.43750000 </v>
   <v>       0.31250000      -0.31250000       0.43750000 </v>
   <v>       0.43750000      -0.31250000       0.43750000 </v>
   <v>      -0.43750000      -0.31250000       0.43750000 </v>
   <v>      -0.31250000      -0.31250000       0.43750000 </v>
   <v>      -0.18750000      -0.31250000       0.43750000 </v>
   <v>      -0.06250000      -0.31250000       0.43750000 </v>
   <v>       0.06250000      -0.18750000       0.43750000 </v>
   <v>       0.18750000      -0.18750000       0.43750000 </v>
   <v>       0.31250000      -0.18750000       0.43750000 </v>
   <v>       0.43750000      -0.18750000       0.43750000 </v>
   <v>      -0.43750000      -0.18750000       0.43750000 </v>
   <v>      -0.31250000      -0.18750000       0.43750000 </v>
   <v>      -0.18750000      -0.18750000       0.43750000 </v>
   <v>      -0.06250000      -0.18750000       0.43750000 </v>
   <v>       0.06250000      -0.06250000       0.43750000 </v>
   <v>       0.18750000      -0.06250000       0.43750000 </v>
   <v>       0.31250000      -0.06250000       0.43750000 </v>
   <v>       0.43750000      -0.06250000       0.43750000 </v>
   <v>      -0.43750000      -0.06250000       0.43750000 </v>
   <v>      -0.31250000      -0.06250000       0.43750000 </v>
   <v>      -0.18750000      -0.06250000       0.43750000 </v>
   <v>      -0.06250000      -0.06250000       0.43750000 </v>
  </varray>
  <varray name="weights" >
   <v>       0.00390625 </v>
   <v>       0.00390625 </v>
   <v>       0.00390625 </v>
   <v>       0.00390625 </v>
   <v>       0.00390625 </v>
   <v>       0.00390625 </v>
   <v>       0.00390625 </v>
   <v>       0.00390625 </v>
   <v>       0.00390625 </v>
   <v>       0.00390625 </v>
   <v>       0.00390625 </v>
   <v>       0.00390625 </v>
   <v>       0.00390625 </v>
   <v>       0.00390625 </v>
   <v>       0.00390625 </v>
   <v>       0.00390625 </v>
   <v>       0.00390625 </v>
   <v>       0.00390625 </v>
   <v>       0.00390625 </v>
   <v>       0.00390625 </v>
   <v>       0.00390625 </v>
   <v>       0.00390625 </v>
   <v>       0.00390625 </v>
   <v>       0.00390625 </v>
   <v>       0.00390625 </v>
   <v>       0.00390625 </v>
   <v>       0.00390625 </v>
   <v>       0.00390625 </v>
   <v>       0.00390625 </v>
   <v>       0.00390625 </v>
   <v>       0.00390625 </v>
   <v>       0.00390625 </v>
   <v>       0.00390625 </v>
   <v>       0.00390625 </v>
   <v>       0.00390625 </v>
   <v>       0.00390625 </v>
   <v>       0.00390625 </v>
   <v>       0.00390625 </v>
   <v>       0.00390625 </v>
   <v>       0.00390625 </v>
   <v>       0.00390625 </v>
   <v>       0.00390625 </v>
   <v>       0.00390625 </v>
   <v>       0.00390625 </v>
   <v>       0.00390625 </v>
   <v>       0.00390625 </v>
   <v>       0.00390625 </v>
   <v>       0.00390625 </v>
   <v>       0.00390625 </v>
   <v>       0.00390625 </v>
   <v>       0.00390625 </v>
   <v>       0.00390625 </v>
   <v>       0.00390625 </v>
   <v>       0.00390625 </v>
   <v>       0.00390625 </v>
   <v>       0.00390625 </v>
   <v>       0.00390625 </v>
   <v>       0.00390625 </v>
   <v>       0.00390625 </v>
   <v>       0.00390625 </v>
   <v>       0.00390625 </v>
   <v>       0.00390625 </v>
   <v>       0.00390625 </v>
   <v>       0.00390625 </v>
   <v>       0.00390625 </v>
   <v>       0.00390625 </v>
   <v>       0.00390625 </v>
   <v>       0.00390625 </v>
   <v>       0.00390625 </v>
   <v>       0.00390625 </v>
   <v>       0.00390625 </v>
   <v>       0.00390625 </v>
   <v>       0.00390625 </v>
   <v>       0.00390625 </v>
   <v>       0.00390625 </v>
   <v>       0.00390625 </v>
   <v>       0.00390625 </v>
   <v>       0.00390625 </v>
   <v>       0.00390625 </v>
   <v>       0.00390625 </v>
   <v>       0.00390625 </v>
   <v>       0.00390625 </v>
   <v>       0.00390625 </v>
   <v>       0.00390625 </v>
   <v>       0.00390625 </v>
   <v>       0.00390625 </v>
   <v>       0.00390625 </v>
   <v>       0.00390625 </v>
   <v>       0.00390625 </v>
   <v>       0.00390625 </v>
   <v>       0.00390625 </v>
   <v>       0.00390625 </v>
   <v>       0.00390625 </v>
   <v>       0.00390625 </v>
   <v>       0.00390625 </v>
   <v>       0.00390625 </v>
   <v>       0.00390625 </v>
   <v>       0.00390625 </v>
   <v>       0.00390625 </v>
   <v>       0.00390625 </v>
   <v>       0.00390625 </v>
   <v>       0.00390625 </v>
   <v>       0.00390625 </v>
   <v>       0.00390625 </v>
   <v>       0.00390625 </v>
   <v>       0.00390625 </v>
   <v>       0.00390625 </v>
   <v>       0.00390625 </v>
   <v>       0.00390625 </v>
   <v>       0.00390625 </v>
   <v>       0.00390625 </v>
   <v>       0.00390625 </v>
   <v>       0.00390625 </v>
   <v>       0.00390625 </v>
   <v>       0.00390625 </v>
   <v>       0.00390625 </v>
   <v>       0.00390625 </v>
   <v>       0.00390625 </v>
   <v>       0.00390625 </v>
   <v>       0.00390625 </v>
   <v>       0.00390625 </v>
   <v>       0.00390625 </v>
   <v>       0.00390625 </v>
   <v>       0.00390625 </v>
   <v>       0.00390625 </v>
   <v>       0.00390625 </v>
   <v>       0.00390625 </v>
   <v>       0.00390625 </v>
   <v>       0.00390625 </v>
   <v>       0.00390625 </v>
   <v>       0.00390625 </v>
   <v>       0.00390625 </v>
   <v>       0.00390625 </v>
   <v>       0.00390625 </v>
   <v>       0.00390625 </v>
   <v>       0.00390625 </v>
   <v>       0.00390625 </v>
   <v>       0.00390625 </v>
   <v>       0.00390625 </v>
   <v>       0.00390625 </v>
   <v>       0.00390625 </v>
   <v>       0.00390625 </v>
   <v>       0.00390625 </v>
   <v>       0.00390625 </v>
   <v>       0.00390625 </v>
   <v>       0.00390625 </v>
   <v>       0.00390625 </v>
   <v>       0.00390625 </v>
   <v>       0.00390625 </v>
   <v>       0.00390625 </v>
   <v>       0.00390625 </v>
   <v>       0.00390625 </v>
   <v>       0.00390625 </v>
   <v>       0.00390625 </v>
   <v>       0.00390625 </v>
   <v>       0.00390625 </v>
   <v>       0.00390625 </v>
   <v>       0.00390625 </v>
   <v>       0.00390625 </v>
   <v>       0.00390625 </v>
   <v>       0.00390625 </v>
   <v>       0.00390625 </v>
   <v>       0.00390625 </v>
   <v>       0.00390625 </v>
   <v>       0.00390625 </v>
   <v>       0.00390625 </v>
   <v>       0.00390625 </v>
   <v>       0.00390625 </v>
   <v>       0.00390625 </v>
   <v>       0.00390625 </v>
   <v>       0.00390625 </v>
   <v>       0.00390625 </v>
   <v>       0.00390625 </v>
   <v>       0.00390625 </v>
   <v>       0.00390625 </v>
   <v>       0.00390625 </v>
   <v>       0.00390625 </v>
   <v>       0.00390625 </v>
   <v>       0.00390625 </v>
   <v>       0.00390625 </v>
   <v>       0.00390625 </v>
   <v>       0.00390625 </v>
   <v>       0.00390625 </v>
   <v>       0.00390625 </v>
   <v>       0.00390625 </v>
   <v>       0.00390625 </v>
   <v>       0.00390625 </v>
   <v>       0.00390625 </v>
   <v>       0.00390625 </v>
   <v>       0.00390625 </v>
   <v>       0.00390625 </v>
   <v>       0.00390625 </v>
   <v>       0.00390625 </v>
   <v>       0.00390625 </v>
   <v>       0.00390625 </v>
   <v>       0.00390625 </v>
   <v>       0.00390625 </v>
   <v>       0.00390625 </v>
   <v>       0.00390625 </v>
   <v>       0.00390625 </v>
   <v>       0.00390625 </v>
   <v>       0.00390625 </v>
   <v>       0.00390625 </v>
   <v>       0.00390625 </v>
   <v>       0.00390625 </v>
   <v>       0.00390625 </v>
   <v>       0.00390625 </v>
   <v>       0.00390625 </v>
   <v>       0.00390625 </v>
   <v>       0.00390625 </v>
   <v>       0.00390625 </v>
   <v>       0.00390625 </v>
   <v>       0.00390625 </v>
   <v>       0.00390625 </v>
   <v>       0.00390625 </v>
   <v>       0.00390625 </v>
   <v>       0.00390625 </v>
   <v>       0.00390625 </v>
   <v>       0.00390625 </v>
   <v>       0.00390625 </v>
   <v>       0.00390625 </v>
   <v>       0.00390625 </v>
   <v>       0.00390625 </v>
   <v>       0.00390625 </v>
   <v>       0.00390625 </v>
   <v>       0.00390625 </v>
   <v>       0.00390625 </v>
   <v>       0.00390625 </v>
   <v>       0.00390625 </v>
   <v>       0.00390625 </v>
   <v>       0.00390625 </v>
   <v>       0.00390625 </v>
   <v>       0.00390625 </v>
   <v>       0.00390625 </v>
   <v>       0.00390625 </v>
   <v>       0.00390625 </v>
   <v>       0.00390625 </v>
   <v>       0.00390625 </v>
   <v>       0.00390625 </v>
   <v>       0.00390625 </v>
   <v>       0.00390625 </v>
   <v>       0.00390625 </v>
   <v>       0.00390625 </v>
   <v>       0.00390625 </v>
   <v>       0.00390625 </v>
   <v>       0.00390625 </v>
   <v>       0.00390625 </v>
   <v>       0.00390625 </v>
   <v>       0.00390625 </v>
   <v>       0.00390625 </v>
   <v>       0.00390625 </v>
   <v>       0.00390625 </v>
   <v>       0.00390625 </v>
   <v>       0.00390625 </v>
   <v>       0.00390625 </v>
   <v>       0.00390625 </v>
  </varray>
 </kpoints>
 <parameters>
  <separator name="general" >
   <i type="string" name="SYSTEM">Fe Bulk</i>
   <i type="logical" name="LCOMPAT"> F  </i>
  </separator>
  <separator name="electronic" >
   <i type="string" name="PREC">normal</i>
   <i name="ENMAX">    600.00000000</i>
   <i name="ENAUG">    511.36800000</i>
   <i name="EDIFF">      0.00001000</i>
   <i type="int" name="IALGO">    38</i>
   <i type="int" name="IWAVPR">    11</i>
   <i type="int" name="NBANDS">    32</i>
   <i name="NELECT">     16.00000000</i>
   <i type="int" name="TURBO">     0</i>
   <i type="int" name="IRESTART">     0</i>
   <i type="int" name="NREBOOT">     0</i>
   <i type="int" name="NMIN">     0</i>
   <i name="EREF">      0.00000000</i>
   <separator name="electronic smearing" >
    <i type="int" name="ISMEAR">     1</i>
    <i name="SIGMA">      0.20000000</i>
    <i name="KSPACING">      0.50000000</i>
    <i type="logical" name="KGAMMA"> T  </i>
   </separator>
   <separator name="electronic projectors" >
    <i type="logical" name="LREAL"> F  </i>
    <v name="ROPT">      0.00000000</v>
    <i type="int" name="LMAXPAW">  -100</i>
    <i type="int" name="LMAXMIX">     2</i>
    <i type="logical" name="NLSPLINE"> F  </i>
   </separator>
   <separator name="electronic startup" >
    <i type="int" name="ISTART">     0</i>
    <i type="int" name="ICHARG">     2</i>
    <i type="int" name="INIWAV">     1</i>
   </separator>
   <separator name="electronic spin" >
    <i type="int" name="ISPIN">     2</i>
    <i type="logical" name="LNONCOLLINEAR"> F  </i>
    <v name="MAGMOM">      1.00000000      1.00000000</v>
    <i name="NUPDOWN">     -1.00000000</i>
    <i type="logical" name="LSORBIT"> F  </i>
    <v name="SAXIS">      0.00000000      0.00000000      1.00000000</v>
    <i type="logical" name="LSPIRAL"> F  </i>
    <v name="QSPIRAL">      0.00000000      0.00000000      0.00000000</v>
    <i type="logical" name="LZEROZ"> F  </i>
   </separator>
   <separator name="electronic exchange-correlation" >
    <i type="logical" name="LASPH"> F  </i>
    <i type="logical" name="LMETAGGA"> F  </i>
   </separator>
   <separator name="electronic convergence" >
    <i type="int" name="NELM">    60</i>
    <i type="int" name="NELMDL">    -5</i>
    <i type="int" name="NELMIN">     6</i>
    <i name="ENINI">    600.00000000</i>
    <separator name="electronic convergence detail" >
     <i type="logical" name="LDIAG"> T  </i>
     <i type="logical" name="LSUBROT"> F  </i>
     <i name="WEIMIN">      0.00100000</i>
     <i name="EBREAK">      0.00000008</i>
     <i name="DEPER">      0.30000000</i>
     <i type="int" name="NRMM">     4</i>
     <i name="TIME">      0.40000000</i>
    </separator>
   </separator>
   <separator name="electronic mixer" >
    <i name="AMIX">      0.40000000</i>
    <i name="BMIX">      1.00000000</i>
    <i name="AMIN">      0.10000000</i>
    <i name="AMIX_MAG">      1.60000000</i>
    <i name="BMIX_MAG">      1.00000000</i>
    <separator name="electronic mixer details" >
     <i type="int" name="IMIX">     4</i>
     <i type="logical" name="MIXFIRST"> F  </i>
     <i type="int" name="MAXMIX">    40</i>
     <i name="WC">    100.00000000</i>
     <i type="int" name="INIMIX">     1</i>
     <i type="int" name="MIXPRE">     1</i>
     <i type="int" name="MREMOVE">     5</i>
    </separator>
   </separator>
   <separator name="electronic dipolcorrection" >
    <i type="logical" name="LDIPOL"> F  </i>
    <i type="logical" name="LMONO"> F  </i>
    <i type="int" name="IDIPOL">     0</i>
    <i name="EPSILON">      1.00000000</i>
    <v name="DIPOL">   -100.00000000   -100.00000000   -100.00000000</v>
    <i name="EFIELD">      0.00000000</i>
   </separator>
  </separator>
  <separator name="grids" >
   <i type="int" name="NGX">    18</i>
   <i type="int" name="NGY">    18</i>
   <i type="int" name="NGZ">    18</i>
   <i type="int" name="NGXF">    36</i>
   <i type="int" name="NGYF">    36</i>
   <i type="int" name="NGZF">    36</i>
   <i type="logical" name="ADDGRID"> F  </i>
  </separator>
  <separator name="ionic" >
   <i type="int" name="NSW">    20</i>
   <i type="int" name="IBRION">     2</i>
   <i type="int" name="ISIF">     2</i>
   <i name="PSTRESS">      0.00000000</i>
   <i name="EDIFFG">     -0.01000000</i>
   <i type="int" name="NFREE">     1</i>
   <i name="POTIM">      0.50000000</i>
   <i name="SMASS">     -3.00000000</i>
   <i name="SCALEE">      1.00000000</i>
  </separator>
  <separator name="ionic md" >
   <i name="TEBEG">      0.00010000</i>
   <i name="TEEND">      0.00010000</i>
   <i type="int" name="NBLOCK">     1</i>
   <i type="int" name="KBLOCK">    20</i>
   <i type="int" name="NPACO">   256</i>
   <i name="APACO">     16.00000000</i>
  </separator>
  <separator name="symmetry" >
   <i type="int" name="ISYM">     0</i>
   <i name="SYMPREC">      0.00001000</i>
  </separator>
  <separator name="dos" >
   <i type="logical" name="LORBIT"> F  </i>
   <v name="RWIGS">     -1.00000000</v>
   <i type="int" name="NEDOS">   301</i>
   <i name="EMIN">     10.00000000</i>
   <i name="EMAX">    -10.00000000</i>
   <i name="EFERMI">      0.00000000</i>
  </separator>
  <separator name="writing" >
   <i type="int" name="NWRITE">     2</i>
   <i type="logical" name="LWAVE"> F  </i>
   <i type="logical" name="LCHARG"> F  </i>
   <i type="logical" name="LPARD"> F  </i>
   <i type="logical" name="LVTOT"> F  </i>
   <i type="logical" name="LVHAR"> F  </i>
   <i type="logical" name="LELF"> F  </i>
   <i type="logical" name="LOPTICS"> F  </i>
   <v name="STM">      0.00000000      0.00000000      0.00000000      0.00000000      0.00000000      0.00000000      0.00000000</v>
  </separator>
  <separator name="performance" >
   <i type="int" name="NPAR">    32</i>
   <i type="int" name="NSIM">     4</i>
   <i type="int" name="NBLK">    -1</i>
   <i type="logical" name="LPLANE"> T  </i>
   <i type="logical" name="LSCALAPACK"> T  </i>
   <i type="logical" name="LSCAAWARE"> T  </i>
   <i type="logical" name="LSCALU"> F  </i>
   <i type="logical" name="LASYNC"> F  </i>
   <i type="logical" name="LORBITALREAL"> F  </i>
  </separator>
  <separator name="miscellaneous" >
   <i type="int" name="IDIOT">     3</i>
   <i type="logical" name="LMUSIC"> F  </i>
   <v name="POMASS">     55.84700000</v>
   <v name="DARWINR">      0.00000000</v>
   <v name="DARWINV">      1.00000000</v>
   <i type="logical" name="LCORR"> T  </i>
  </separator>
  <i type="logical" name="GGA_COMPAT"> T  </i>
  <i type="logical" name="LBERRY"> F  </i>
  <i type="int" name="ICORELEVEL">     0</i>
  <i type="logical" name="LDAU"> F  </i>
  <i type="int" name="I_CONSTRAINED_M">     0</i>
  <separator name="electronic exchange-correlation" >
   <i type="string" name="GGA">PE</i>
   <i type="int" name="VOSKOWN">     0</i>
   <i type="logical" name="LHFCALC"> F  </i>
   <i type="string" name="PRECFOCK"></i>
   <i type="logical" name="LSYMGRAD"> F  </i>
   <i type="logical" name="LHFONE"> F  </i>
   <i type="logical" name="LRHFCALC"> F  </i>
   <i type="logical" name="LTHOMAS"> F  </i>
   <i type="logical" name="LMODELHF"> F  </i>
   <i name="ENCUT4O">     -1.00000000</i>
   <i type="int" name="EXXOEP">     0</i>
   <i type="int" name="FOURORBIT">     0</i>
   <i name="AEXX">      0.00000000</i>
   <i name="HFALPHA">      0.00000000</i>
   <i name="MCALPHA">      0.00000000</i>
   <i name="ALDAX">      1.00000000</i>
   <i name="AGGAX">      1.00000000</i>
   <i name="ALDAC">      1.00000000</i>
   <i name="AGGAC">      1.00000000</i>
   <i type="int" name="NKREDX">     1</i>
   <i type="int" name="NKREDY">     1</i>
   <i type="int" name="NKREDZ">     1</i>
   <i type="logical" name="SHIFTRED"> F  </i>
   <i type="logical" name="ODDONLY"> F  </i>
   <i type="logical" name="EVENONLY"> F  </i>
   <i type="int" name="LMAXFOCK">     0</i>
   <i type="int" name="NMAXFOCKAE">     0</i>
   <i type="logical" name="LFOCKAEDFT"> F  </i>
   <i name="HFSCREEN">      0.00000000</i>
   <i name="HFSCREENC">      0.00000000</i>
   <i type="int" name="NBANDSGWLOW">     0</i>
  </separator>
  <separator name="vdW DFT" >
   <i type="logical" name="LUSE_VDW"> F  </i>
   <i name="Zab_VDW">     -0.84910000</i>
   <i name="PARAM1">      0.12340000</i>
   <i name="PARAM2">      1.00000000</i>
   <i name="PARAM3">      0.00000000</i>
  </separator>
  <separator name="model GW" >
   <i type="int" name="MODEL_GW">     0</i>
   <i name="MODEL_EPS0">      7.01809680</i>
   <i name="MODEL_ALPHA">      1.00000000</i>
  </separator>
  <separator name="linear response parameters" >
   <i type="logical" name="LEPSILON"> F  </i>
   <i type="logical" name="LRPA"> F  </i>
   <i type="logical" name="LNABLA"> F  </i>
   <i type="logical" name="LVEL"> F  </i>
   <i type="int" name="KINTER">     0</i>
   <i name="CSHIFT">      0.10000000</i>
   <i name="OMEGAMAX">     -1.00000000</i>
   <i name="DEG_THRESHOLD">      0.00200000</i>
  </separator>
  <separator name="orbital magnetization" >
   <i type="logical" name="NUCIND"> F  </i>
   <v name="MAGPOS">      0.00000000      0.00000000      0.00000000</v>
   <i type="logical" name="LNICSALL"> T  </i>
   <i type="logical" name="ORBITALMAG"> F  </i>
   <i type="logical" name="LMAGBLOCH"> F  </i>
   <i type="logical" name="LCHIMAG"> F  </i>
   <i type="logical" name="LGAUGE"> T  </i>
   <i type="int" name="MAGATOM">     0</i>
   <v name="MAGDIPOL">      0.00000000      0.00000000      0.00000000</v>
   <v name="AVECCONST">      0.00000000      0.00000000      0.00000000</v>
  </separator>
  <separator name="response functions" >
   <i type="logical" name="LADDER"> F  </i>
   <i type="logical" name="LFXC"> F  </i>
   <i type="logical" name="LHARTREE"> T  </i>
   <i type="int" name="IBSE">     0</i>
   <v type="int" name="KPOINT">    -1     0     0     0</v>
   <i type="logical" name="LTCTE"> F  </i>
   <i type="logical" name="LTETE"> F  </i>
   <i type="logical" name="LTRIPLET"> F  </i>
   <i type="logical" name="LFXCEPS"> F  </i>
   <i type="logical" name="LFXHEG"> F  </i>
   <i type="int" name="NATURALO">     0</i>
   <i type="logical" name="L2ORDER"> F  </i>
   <i type="logical" name="LUSEW"> F  </i>
   <i name="ENCUTGW">     -2.00000000</i>
   <i name="ENCUTGWSOFT">     -2.00000000</i>
   <i name="ENCUTLF">     -1.00000000</i>
   <i type="int" name="LMAXMP2">    -1</i>
   <i name="SCISSOR">      0.00000000</i>
   <i type="int" name="NOMEGA">     0</i>
   <i type="int" name="NOMEGAR">     0</i>
   <i type="int" name="NBANDSGW">    -1</i>
   <i type="int" name="NBANDSO">    -1</i>
   <i type="int" name="NBANDSV">    -1</i>
   <i type="int" name="NELM">     1</i>
   <i type="int" name="NELMHF">     1</i>
   <i type="int" name="DIM">     3</i>
   <i type="int" name="ANTIRES">     0</i>
   <i name="OMEGAMAX">    -30.00000000</i>
   <i name="OMEGAMIN">    -30.00000000</i>
   <i name="OMEGATL">   -200.00000000</i>
   <i type="int" name="OMEGAGRID">     0</i>
   <i name="CSHIFT">     -0.10000000</i>
   <i type="logical" name="SELFENERGY"> F  </i>
   <i type="logical" name="LSPECTRAL"> F  </i>
   <i type="logical" name="LSPECTRALGW"> F  </i>
   <i type="logical" name="LSINGLES"> F  </i>
   <i type="logical" name="LFERMIGW"> F  </i>
   <i type="logical" name="ODDONLYGW"> F  </i>
   <i type="logical" name="EVENONLYGW"> F  </i>
   <i type="int" name="NKREDLFX">     1</i>
   <i type="int" name="NKREDLFY">     1</i>
   <i type="int" name="NKREDLFZ">     1</i>
   <i type="int" name="MAXMEM">  1800</i>
   <i type="int" name="TELESCOPE">     0</i>
   <i type="int" name="TAUPAR">     1</i>
   <i type="int" name="OMEGAPAR">    -1</i>
   <i name="LAMBDA">      1.00000000</i>
  </separator>
  <separator name="External order field" >
   <i name="OFIELD_KAPPA">      0.00000000</i>
   <v name="OFIELD_K">      0.00000000      0.00000000      0.00000000</v>
   <i name="OFIELD_Q6_NEAR">      0.00000000</i>
   <i name="OFIELD_Q6_FAR">      0.00000000</i>
   <i name="OFIELD_A">      0.00000000</i>
  </separator>
 </parameters>
 <atominfo>
  <atoms>       2 </atoms>
  <types>       1 </types>
  <array name="atoms" >
   <dimension dim="1">ion</dimension>
   <field type="string">element</field>
   <field type="int">atomtype</field>
   <set>
    <rc><c>Fe</c><c>   1</c></rc>
    <rc><c>Fe</c><c>   1</c></rc>
   </set>
  </array>
  <array name="atomtypes" >
   <dimension dim="1">type</dimension>
   <field type="int">atomspertype</field>
   <field type="string">element</field>
   <field>mass</field>
   <field>valence</field>
   <field type="string">pseudopotential</field>
   <set>
    <rc><c>   2</c><c>Fe</c><c>     55.84700000</c><c>      8.00000000</c><c>  PAW_PBE Fe 06Sep2000                  </c></rc>
   </set>
  </array>
 </atominfo>
 <structure name="initialpos" >
  <crystal>
   <varray name="basis" >
    <v>       2.86000000       0.00000000       0.00000000 </v>
    <v>       0.00000000       2.86000000       0.00000000 </v>
    <v>       0.00000000       0.00000000       2.86000000 </v>
   </varray>
   <i name="volume">     23.39365600 </i>
   <varray name="rec_basis" >
    <v>       0.34965035       0.00000000       0.00000000 </v>
    <v>       0.00000000       0.34965035       0.00000000 </v>
    <v>       0.00000000       0.00000000       0.34965035 </v>
   </varray>
  </crystal>
  <varray name="positions" >
   <v>       0.00000000       0.00000000       0.00000000 </v>
   <v>       0.50000000       0.50000000       0.50000000 </v>
  </varray>
 </structure>
 <calculation>
  <scstep>
   <time name="dav">    6.27    6.30</time>
   <time name="total">    6.31    6.35</time>
   <energy>
    <i name="alphaZ">    118.17524546 </i>
    <i name="ewald">  -1172.68111701 </i>
    <i name="hartreedc">   -227.55063011 </i>
    <i name="XCdc">      7.90836475 </i>
    <i name="pawpsdc">   1109.45345578 </i>
    <i name="pawaedc">  -1124.86183816 </i>
    <i name="eentropy">      0.00007305 </i>
    <i name="bandstr">    102.48199847 </i>
    <i name="atom">   1188.62725594 </i>
    <i name="e_fr_energy">      1.55280816 </i>
    <i name="e_wo_entrp">      1.55273511 </i>
    <i name="e_0_energy">      1.55278381 </i>
   </energy>
  </scstep>
  <scstep>
   <time name="dav">   10.66   10.66</time>
   <time name="total">   10.66   10.68</time>
   <energy>
    <i name="e_fr_energy">    -18.46140081 </i>
    <i name="e_wo_entrp">    -18.45236829 </i>
    <i name="e_0_energy">    -18.45838997 </i>
   </energy>
  </scstep>
  <scstep>
   <time name="dav">    7.14    7.14</time>
   <time name="total">    7.14    7.16</time>
   <energy>
    <i name="e_fr_energy">    -18.48409151 </i>
    <i name="e_wo_entrp">    -18.47507365 </i>
    <i name="e_0_energy">    -18.48108556 </i>
   </energy>
  </scstep>
  <scstep>
   <time name="dav">   17.14   17.14</time>
   <time name="total">   17.14   17.16</time>
   <energy>
    <i name="e_fr_energy">    -18.48410939 </i>
    <i name="e_wo_entrp">    -18.47509153 </i>
    <i name="e_0_energy">    -18.48110344 </i>
   </energy>
  </scstep>
  <scstep>
   <time name="dav">    7.59    7.64</time>
   <time name="total">    7.65    7.72</time>
   <energy>
    <i name="e_fr_energy">    -18.48410939 </i>
    <i name="e_wo_entrp">    -18.47509153 </i>
    <i name="e_0_energy">    -18.48110344 </i>
   </energy>
  </scstep>
  <scstep>
   <time name="dav">   10.56   10.57</time>
   <time name="total">   10.63   10.65</time>
   <energy>
    <i name="e_fr_energy">    -16.43127866 </i>
    <i name="e_wo_entrp">    -16.43358450 </i>
    <i name="e_0_energy">    -16.43204727 </i>
   </energy>
  </scstep>
  <scstep>
   <time name="dav">    9.07    9.07</time>
   <time name="total">    9.13    9.15</time>
   <energy>
    <i name="e_fr_energy">    -16.42757030 </i>
    <i name="e_wo_entrp">    -16.43186219 </i>
    <i name="e_0_energy">    -16.42900093 </i>
   </energy>
  </scstep>
  <scstep>
   <time name="dav">   12.90   12.91</time>
   <time name="total">   12.98   13.00</time>
   <energy>
    <i name="e_fr_energy">    -16.47115439 </i>
    <i name="e_wo_entrp">    -16.46738941 </i>
    <i name="e_0_energy">    -16.46989940 </i>
   </energy>
  </scstep>
  <scstep>
   <time name="dav">   11.60   11.61</time>
   <time name="total">   11.68   11.70</time>
   <energy>
    <i name="e_fr_energy">    -16.46082893 </i>
    <i name="e_wo_entrp">    -16.45657479 </i>
    <i name="e_0_energy">    -16.45941088 </i>
   </energy>
  </scstep>
  <scstep>
   <time name="dav">   11.40   11.43</time>
   <time name="total">   11.48   11.52</time>
   <energy>
    <i name="e_fr_energy">    -16.46110879 </i>
    <i name="e_wo_entrp">    -16.45705266 </i>
    <i name="e_0_energy">    -16.45975674 </i>
   </energy>
  </scstep>
  <scstep>
   <time name="dav">   11.56   11.57</time>
   <time name="total">   11.64   11.66</time>
   <energy>
    <i name="e_fr_energy">    -16.46184640 </i>
    <i name="e_wo_entrp">    -16.45756425 </i>
    <i name="e_0_energy">    -16.46041902 </i>
   </energy>
  </scstep>
  <scstep>
   <time name="dav">    7.31    7.32</time>
   <time name="total">    7.39    7.41</time>
   <energy>
    <i name="e_fr_energy">    -16.46186773 </i>
    <i name="e_wo_entrp">    -16.45757585 </i>
    <i name="e_0_energy">    -16.46043710 </i>
   </energy>
  </scstep>
  <scstep>
   <time name="dav">    8.84    8.85</time>
   <time name="total">    8.86    8.88</time>
   <energy>
    <i name="alphaZ">    118.17524546 </i>
    <i name="ewald">  -1172.68111701 </i>
    <i name="hartreedc">   -194.87196571 </i>
    <i name="XCdc">      8.57988032 </i>
    <i name="pawpsdc">   1416.06061182 </i>
    <i name="pawaedc">  -1434.02042489 </i>
    <i name="eentropy">     -0.00429528 </i>
    <i name="bandstr">     53.67293611 </i>
    <i name="atom">   1188.62725594 </i>
    <i name="e_fr_energy">    -16.46187325 </i>
    <i name="e_wo_entrp">    -16.45757797 </i>
    <i name="e_0_energy">    -16.46044149 </i>
   </energy>
  </scstep>
  <structure>
   <crystal>
    <varray name="basis" >
     <v>       2.86000000       0.00000000       0.00000000 </v>
     <v>       0.00000000       2.86000000       0.00000000 </v>
     <v>       0.00000000       0.00000000       2.86000000 </v>
    </varray>
    <i name="volume">     23.39365600 </i>
    <varray name="rec_basis" >
     <v>       0.34965035       0.00000000       0.00000000 </v>
     <v>       0.00000000       0.34965035       0.00000000 </v>
     <v>       0.00000000       0.00000000       0.34965035 </v>
    </varray>
   </crystal>
   <varray name="positions" >
    <v>       0.00000000       0.00000000       0.00000000 </v>
    <v>       0.50000000       0.50000000       0.50000000 </v>
   </varray>
  </structure>
  <varray name="forces" >
   <v>       0.00000005      -0.00000006      -0.00000012 </v>
   <v>      -0.00000005       0.00000006       0.00000012 </v>
  </varray>
  <varray name="stress" >
   <v>     -49.82130743       0.00008498      -0.00001408 </v>
   <v>       0.00008508     -49.82135711       0.00001485 </v>
   <v>      -0.00001454       0.00001485     -49.82133141 </v>
  </varray>
  <energy>
   <i name="e_fr_energy">    -16.46187325 </i>
   <i name="e_wo_entrp">    -16.46044149 </i>
   <i name="e_0_energy">     -0.00429528 </i>
  </energy>
  <time name="totalsc">  133.82  134.17</time>
  <eigenvalues>
   <array>
    <dimension dim="1">band</dimension>
    <dimension dim="2">kpoint</dimension>
    <dimension dim="3">spin</dimension>
    <field>eigene</field>
    <field>occ</field>
    <set>
     <set comment="spin 1">
      <set comment="kpoint 1">
       <r>   -2.5106    1.0000 </r>
       <r>    0.9625    1.0000 </r>
       <r>    0.9625    1.0000 </r>
       <r>    3.2219    1.0000 </r>
       <r>    3.2219    1.0000 </r>
       <r>    3.4132    1.0000 </r>
       <r>    4.4370    1.0000 </r>
       <r>    4.4370    1.0000 </r>
       <r>    5.2407    1.0321 </r>
       <r>    5.5234    0.4813 </r>
       <r>    5.5234    0.4813 </r>
       <r>   14.8155    0.0000 </r>
       <r>   14.8155    0.0000 </r>
       <r>   15.1840    0.0000 </r>
       <r>   21.6436    0.0000 </r>
       <r>   21.6436    0.0000 </r>
       <r>   26.3639    0.0000 </r>
       <r>   29.0718    0.0000 </r>
       <r>   29.0718    0.0000 </r>
       <r>   30.4617    0.0000 </r>
       <r>   33.9416    0.0000 </r>
       <r>   35.1065    0.0000 </r>
       <r>   35.1065    0.0000 </r>
       <r>   36.7340    0.0000 </r>
       <r>   36.7340    0.0000 </r>
       <r>   40.1560    0.0000 </r>
       <r>   40.1560    0.0000 </r>
       <r>   40.3050    0.0000 </r>
       <r>   43.5070    0.0000 </r>
       <r>   49.0604    0.0000 </r>
       <r>   50.7911    0.0000 </r>
       <r>   50.7911    0.0000 </r>
      </set>
      <set comment="kpoint 2">
       <r>   -1.9007    1.0000 </r>
       <r>    1.2061    1.0000 </r>
       <r>    1.2115    1.0000 </r>
       <r>    3.1410    1.0000 </r>
       <r>    3.2013    1.0000 </r>
       <r>    3.6658    1.0000 </r>
       <r>    4.2062    1.0000 </r>
       <r>    4.5498    1.0000 </r>
       <r>    4.7011    1.0000 </r>
       <r>    5.0813    1.0042 </r>
       <r>    5.4908    0.6182 </r>
       <r>   11.9864    0.0000 </r>
       <r>   15.8448    0.0000 </r>
       <r>   16.1091    0.0000 </r>
       <r>   21.9278    0.0000 </r>
       <r>   23.3467    0.0000 </r>
       <r>   26.4288    0.0000 </r>
       <r>   27.8319    0.0000 </r>
       <r>   28.6029    0.0000 </r>
       <r>   29.9001    0.0000 </r>
       <r>   32.1864    0.0000 </r>
       <r>   32.9400    0.0000 </r>
       <r>   34.8884    0.0000 </r>
       <r>   38.2378    0.0000 </r>
       <r>   39.0349    0.0000 </r>
       <r>   41.5345    0.0000 </r>
       <r>   41.8821    0.0000 </r>
       <r>   43.0002    0.0000 </r>
       <r>   44.0824    0.0000 </r>
       <r>   46.6902    0.0000 </r>
       <r>   47.1732    0.0000 </r>
       <r>   51.5854    0.0000 </r>
      </set>
      <set comment="kpoint 3">
       <r>   -0.7887    1.0000 </r>
       <r>    1.4917    1.0000 </r>
       <r>    1.6732    1.0000 </r>
       <r>    3.1607    1.0000 </r>
       <r>    3.1706    1.0000 </r>
       <r>    3.8296    1.0000 </r>
       <r>    4.0199    1.0000 </r>
       <r>    4.1014    1.0000 </r>
       <r>    4.4792    1.0000 </r>
       <r>    4.7633    1.0000 </r>
       <r>    5.2323    1.0305 </r>
       <r>    8.9539   -0.0000 </r>
       <r>   17.5643    0.0000 </r>
       <r>   17.8364    0.0000 </r>
       <r>   22.5696    0.0000 </r>
       <r>   23.9439    0.0000 </r>
       <r>   24.2998    0.0000 </r>
       <r>   25.2360    0.0000 </r>
       <r>   27.8161    0.0000 </r>
       <r>   29.5782    0.0000 </r>
       <r>   32.9638    0.0000 </r>
       <r>   33.4285    0.0000 </r>
       <r>   35.6549    0.0000 </r>
       <r>   39.1289    0.0000 </r>
       <r>   39.2866    0.0000 </r>
       <r>   43.6660    0.0000 </r>
       <r>   43.6859    0.0000 </r>
       <r>   43.8745    0.0000 </r>
       <r>   44.1250    0.0000 </r>
       <r>   46.7749    0.0000 </r>
       <r>   48.5532    0.0000 </r>
       <r>   49.8213    0.0000 </r>
      </set>
      <set comment="kpoint 4">
       <r>    0.5138    1.0000 </r>
       <r>    1.3882    1.0000 </r>
       <r>    2.2718    1.0000 </r>
       <r>    2.8677    1.0000 </r>
       <r>    3.3517    1.0000 </r>
       <r>    3.6482    1.0000 </r>
       <r>    3.6816    1.0000 </r>
       <r>    3.9638    1.0000 </r>
       <r>    4.4336    1.0000 </r>
       <r>    4.8492    1.0000 </r>
       <r>    5.2472    1.0332 </r>
       <r>    6.5661   -0.0000 </r>
       <r>   19.6076    0.0000 </r>
       <r>   20.0190    0.0000 </r>
       <r>   21.7291    0.0000 </r>
       <r>   22.5093    0.0000 </r>
       <r>   23.7173    0.0000 </r>
       <r>   25.4074    0.0000 </r>
       <r>   25.5118    0.0000 </r>
       <r>   27.1628    0.0000 </r>
       <r>   35.0149    0.0000 </r>
       <r>   36.7836    0.0000 </r>
       <r>   37.7362    0.0000 </r>
       <r>   38.5109    0.0000 </r>
       <r>   40.1967    0.0000 </r>
       <r>   40.4939    0.0000 </r>
       <r>   42.0273    0.0000 </r>
       <r>   43.6540    0.0000 </r>
       <r>   46.3684    0.0000 </r>
       <r>   47.7971    0.0000 </r>
       <r>   49.3425    0.0000 </r>
       <r>   51.9443    0.0000 </r>
      </set>
      <set comment="kpoint 5">
       <r>    0.5138    1.0000 </r>
       <r>    1.3882    1.0000 </r>
       <r>    2.2718    1.0000 </r>
       <r>    2.8677    1.0000 </r>
       <r>    3.3517    1.0000 </r>
       <r>    3.6482    1.0000 </r>
       <r>    3.6816    1.0000 </r>
       <r>    3.9638    1.0000 </r>
       <r>    4.4336    1.0000 </r>
       <r>    4.8492    1.0000 </r>
       <r>    5.2472    1.0332 </r>
       <r>    6.5661   -0.0000 </r>
       <r>   19.6076    0.0000 </r>
       <r>   20.0190    0.0000 </r>
       <r>   21.7291    0.0000 </r>
       <r>   22.5093    0.0000 </r>
       <r>   23.7173    0.0000 </r>
       <r>   25.4074    0.0000 </r>
       <r>   25.5118    0.0000 </r>
       <r>   27.1628    0.0000 </r>
       <r>   35.0149    0.0000 </r>
       <r>   36.7836    0.0000 </r>
       <r>   37.7362    0.0000 </r>
       <r>   38.5109    0.0000 </r>
       <r>   40.1967    0.0000 </r>
       <r>   40.4939    0.0000 </r>
       <r>   42.0273    0.0000 </r>
       <r>   43.6540    0.0000 </r>
       <r>   46.3684    0.0000 </r>
       <r>   47.7971    0.0000 </r>
       <r>   49.3425    0.0000 </r>
       <r>   51.9443    0.0000 </r>
      </set>
      <set comment="kpoint 6">
       <r>   -0.7887    1.0000 </r>
       <r>    1.4917    1.0000 </r>
       <r>    1.6732    1.0000 </r>
       <r>    3.1607    1.0000 </r>
       <r>    3.1706    1.0000 </r>
       <r>    3.8296    1.0000 </r>
       <r>    4.0199    1.0000 </r>
       <r>    4.1014    1.0000 </r>
       <r>    4.4792    1.0000 </r>
       <r>    4.7633    1.0000 </r>
       <r>    5.2323    1.0305 </r>
       <r>    8.9539   -0.0000 </r>
       <r>   17.5643    0.0000 </r>
       <r>   17.8364    0.0000 </r>
       <r>   22.5696    0.0000 </r>
       <r>   23.9439    0.0000 </r>
       <r>   24.2998    0.0000 </r>
       <r>   25.2360    0.0000 </r>
       <r>   27.8161    0.0000 </r>
       <r>   29.5782    0.0000 </r>
       <r>   32.9638    0.0000 </r>
       <r>   33.4285    0.0000 </r>
       <r>   35.6549    0.0000 </r>
       <r>   39.1289    0.0000 </r>
       <r>   39.2866    0.0000 </r>
       <r>   43.6660    0.0000 </r>
       <r>   43.6859    0.0000 </r>
       <r>   43.8745    0.0000 </r>
       <r>   44.1250    0.0000 </r>
       <r>   46.7749    0.0000 </r>
       <r>   48.5532    0.0000 </r>
       <r>   49.8213    0.0000 </r>
      </set>
      <set comment="kpoint 7">
       <r>   -1.9007    1.0000 </r>
       <r>    1.2061    1.0000 </r>
       <r>    1.2115    1.0000 </r>
       <r>    3.1410    1.0000 </r>
       <r>    3.2013    1.0000 </r>
       <r>    3.6658    1.0000 </r>
       <r>    4.2062    1.0000 </r>
       <r>    4.5498    1.0000 </r>
       <r>    4.7011    1.0000 </r>
       <r>    5.0813    1.0042 </r>
       <r>    5.4908    0.6182 </r>
       <r>   11.9864    0.0000 </r>
       <r>   15.8448    0.0000 </r>
       <r>   16.1091    0.0000 </r>
       <r>   21.9278    0.0000 </r>
       <r>   23.3467    0.0000 </r>
       <r>   26.4288    0.0000 </r>
       <r>   27.8319    0.0000 </r>
       <r>   28.6029    0.0000 </r>
       <r>   29.9001    0.0000 </r>
       <r>   32.1864    0.0000 </r>
       <r>   32.9400    0.0000 </r>
       <r>   34.8884    0.0000 </r>
       <r>   38.2378    0.0000 </r>
       <r>   39.0349    0.0000 </r>
       <r>   41.5345    0.0000 </r>
       <r>   41.8821    0.0000 </r>
       <r>   43.0002    0.0000 </r>
       <r>   44.0824    0.0000 </r>
       <r>   46.6902    0.0000 </r>
       <r>   47.1732    0.0000 </r>
       <r>   51.5854    0.0000 </r>
      </set>
      <set comment="kpoint 8">
       <r>   -2.5106    1.0000 </r>
       <r>    0.9625    1.0000 </r>
       <r>    0.9625    1.0000 </r>
       <r>    3.2219    1.0000 </r>
       <r>    3.2219    1.0000 </r>
       <r>    3.4132    1.0000 </r>
       <r>    4.4370    1.0000 </r>
       <r>    4.4370    1.0000 </r>
       <r>    5.2407    1.0321 </r>
       <r>    5.5234    0.4813 </r>
       <r>    5.5234    0.4813 </r>
       <r>   14.8155    0.0000 </r>
       <r>   14.8155    0.0000 </r>
       <r>   15.1840    0.0000 </r>
       <r>   21.6436    0.0000 </r>
       <r>   21.6436    0.0000 </r>
       <r>   26.3639    0.0000 </r>
       <r>   29.0718    0.0000 </r>
       <r>   29.0718    0.0000 </r>
       <r>   30.4617    0.0000 </r>
       <r>   33.9416    0.0000 </r>
       <r>   35.1065    0.0000 </r>
       <r>   35.1065    0.0000 </r>
       <r>   36.7340    0.0000 </r>
       <r>   36.7340    0.0000 </r>
       <r>   40.1560    0.0000 </r>
       <r>   40.1560    0.0000 </r>
       <r>   40.3050    0.0000 </r>
       <r>   43.5070    0.0000 </r>
       <r>   49.0604    0.0000 </r>
       <r>   50.7911    0.0000 </r>
       <r>   50.7911    0.0000 </r>
      </set>
      <set comment="kpoint 9">
       <r>   -1.9007    1.0000 </r>
       <r>    1.2061    1.0000 </r>
       <r>    1.2115    1.0000 </r>
       <r>    3.1410    1.0000 </r>
       <r>    3.2013    1.0000 </r>
       <r>    3.6658    1.0000 </r>
       <r>    4.2062    1.0000 </r>
       <r>    4.5498    1.0000 </r>
       <r>    4.7011    1.0000 </r>
       <r>    5.0813    1.0042 </r>
       <r>    5.4908    0.6182 </r>
       <r>   11.9864    0.0000 </r>
       <r>   15.8448    0.0000 </r>
       <r>   16.1091    0.0000 </r>
       <r>   21.9278    0.0000 </r>
       <r>   23.3467    0.0000 </r>
       <r>   26.4288    0.0000 </r>
       <r>   27.8319    0.0000 </r>
       <r>   28.6029    0.0000 </r>
       <r>   29.9001    0.0000 </r>
       <r>   32.1864    0.0000 </r>
       <r>   32.9400    0.0000 </r>
       <r>   34.8884    0.0000 </r>
       <r>   38.2378    0.0000 </r>
       <r>   39.0349    0.0000 </r>
       <r>   41.5345    0.0000 </r>
       <r>   41.8821    0.0000 </r>
       <r>   43.0002    0.0000 </r>
       <r>   44.0824    0.0000 </r>
       <r>   46.6902    0.0000 </r>
       <r>   47.1732    0.0000 </r>
       <r>   51.5854    0.0000 </r>
      </set>
      <set comment="kpoint 10">
       <r>   -1.3307    1.0000 </r>
       <r>    1.3673    1.0000 </r>
       <r>    1.5025    1.0000 </r>
       <r>    2.9194    1.0000 </r>
       <r>    3.1044    1.0000 </r>
       <r>    4.0643    1.0000 </r>
       <r>    4.0769    1.0000 </r>
       <r>    4.2908    1.0000 </r>
       <r>    4.4889    1.0000 </r>
       <r>    4.7884    1.0000 </r>
       <r>    5.5907    0.2171 </r>
       <r>   12.1212    0.0000 </r>
       <r>   13.6599    0.0000 </r>
       <r>   16.8511    0.0000 </r>
       <r>   22.7982    0.0000 </r>
       <r>   23.9617    0.0000 </r>
       <r>   25.5639    0.0000 </r>
       <r>   26.8390    0.0000 </r>
       <r>   29.8012    0.0000 </r>
       <r>   29.9020    0.0000 </r>
       <r>   30.3355    0.0000 </r>
       <r>   34.1854    0.0000 </r>
       <r>   35.0112    0.0000 </r>
       <r>   38.2264    0.0000 </r>
       <r>   38.9657    0.0000 </r>
       <r>   40.0648    0.0000 </r>
       <r>   43.9986    0.0000 </r>
       <r>   44.0392    0.0000 </r>
       <r>   44.8383    0.0000 </r>
       <r>   46.4641    0.0000 </r>
       <r>   49.4357    0.0000 </r>
       <r>   51.8089    0.0000 </r>
      </set>
      <set comment="kpoint 11">
       <r>   -0.3330    1.0000 </r>
       <r>    1.5460    1.0000 </r>
       <r>    1.9570    1.0000 </r>
       <r>    2.7952    1.0000 </r>
       <r>    3.0440    1.0000 </r>
       <r>    3.5078    1.0000 </r>
       <r>    4.1508    1.0000 </r>
       <r>    4.3341    1.0000 </r>
       <r>    4.5259    1.0000 </r>
       <r>    4.6782    1.0000 </r>
       <r>    5.5153    0.5156 </r>
       <r>    9.4911   -0.0000 </r>
       <r>   14.6479    0.0000 </r>
       <r>   18.3659    0.0000 </r>
       <r>   21.1545    0.0000 </r>
       <r>   23.4381    0.0000 </r>
       <r>   24.8942    0.0000 </r>
       <r>   27.3715    0.0000 </r>
       <r>   28.0952    0.0000 </r>
       <r>   30.2409    0.0000 </r>
       <r>   33.2183    0.0000 </r>
       <r>   33.4012    0.0000 </r>
       <r>   34.8266    0.0000 </r>
       <r>   36.6864    0.0000 </r>
       <r>   41.2601    0.0000 </r>
       <r>   41.5623    0.0000 </r>
       <r>   41.9577    0.0000 </r>
       <r>   46.6721    0.0000 </r>
       <r>   47.2006    0.0000 </r>
       <r>   47.7750    0.0000 </r>
       <r>   50.0388    0.0000 </r>
       <r>   52.4628    0.0000 </r>
      </set>
      <set comment="kpoint 12">
       <r>    0.7301    1.0000 </r>
       <r>    1.4050    1.0000 </r>
       <r>    2.4215    1.0000 </r>
       <r>    2.7428    1.0000 </r>
       <r>    3.0028    1.0000 </r>
       <r>    3.1523    1.0000 </r>
       <r>    4.0867    1.0000 </r>
       <r>    4.1136    1.0000 </r>
       <r>    4.8567    1.0000 </r>
       <r>    5.2330    1.0306 </r>
       <r>    5.3717    0.9720 </r>
       <r>    6.9691   -0.0000 </r>
       <r>   16.4648    0.0000 </r>
       <r>   18.6404    0.0000 </r>
       <r>   20.3145    0.0000 </r>
       <r>   22.5220    0.0000 </r>
       <r>   24.4920    0.0000 </r>
       <r>   26.1133    0.0000 </r>
       <r>   28.7606    0.0000 </r>
       <r>   30.1104    0.0000 </r>
       <r>   32.6623    0.0000 </r>
       <r>   33.8423    0.0000 </r>
       <r>   36.1742    0.0000 </r>
       <r>   37.6090    0.0000 </r>
       <r>   40.0440    0.0000 </r>
       <r>   43.2585    0.0000 </r>
       <r>   44.3259    0.0000 </r>
       <r>   45.4841    0.0000 </r>
       <r>   47.6478    0.0000 </r>
       <r>   49.2275    0.0000 </r>
       <r>   51.1939    0.0000 </r>
       <r>   52.1866    0.0000 </r>
      </set>
      <set comment="kpoint 13">
       <r>    0.7301    1.0000 </r>
       <r>    1.4050    1.0000 </r>
       <r>    2.4215    1.0000 </r>
       <r>    2.7428    1.0000 </r>
       <r>    3.0028    1.0000 </r>
       <r>    3.1523    1.0000 </r>
       <r>    4.0867    1.0000 </r>
       <r>    4.1136    1.0000 </r>
       <r>    4.8567    1.0000 </r>
       <r>    5.2330    1.0306 </r>
       <r>    5.3717    0.9720 </r>
       <r>    6.9691   -0.0000 </r>
       <r>   16.4648    0.0000 </r>
       <r>   18.6404    0.0000 </r>
       <r>   20.3145    0.0000 </r>
       <r>   22.5220    0.0000 </r>
       <r>   24.4920    0.0000 </r>
       <r>   26.1133    0.0000 </r>
       <r>   28.7606    0.0000 </r>
       <r>   30.1104    0.0000 </r>
       <r>   32.6623    0.0000 </r>
       <r>   33.8423    0.0000 </r>
       <r>   36.1742    0.0000 </r>
       <r>   37.6090    0.0000 </r>
       <r>   40.0440    0.0000 </r>
       <r>   43.2585    0.0000 </r>
       <r>   44.3259    0.0000 </r>
       <r>   45.4841    0.0000 </r>
       <r>   47.6478    0.0000 </r>
       <r>   49.2275    0.0000 </r>
       <r>   51.1939    0.0000 </r>
       <r>   52.1866    0.0000 </r>
      </set>
      <set comment="kpoint 14">
       <r>   -0.3330    1.0000 </r>
       <r>    1.5460    1.0000 </r>
       <r>    1.9570    1.0000 </r>
       <r>    2.7952    1.0000 </r>
       <r>    3.0440    1.0000 </r>
       <r>    3.5078    1.0000 </r>
       <r>    4.1508    1.0000 </r>
       <r>    4.3341    1.0000 </r>
       <r>    4.5259    1.0000 </r>
       <r>    4.6782    1.0000 </r>
       <r>    5.5153    0.5156 </r>
       <r>    9.4911   -0.0000 </r>
       <r>   14.6479    0.0000 </r>
       <r>   18.3659    0.0000 </r>
       <r>   21.1545    0.0000 </r>
       <r>   23.4381    0.0000 </r>
       <r>   24.8942    0.0000 </r>
       <r>   27.3715    0.0000 </r>
       <r>   28.0952    0.0000 </r>
       <r>   30.2409    0.0000 </r>
       <r>   33.2183    0.0000 </r>
       <r>   33.4012    0.0000 </r>
       <r>   34.8266    0.0000 </r>
       <r>   36.6864    0.0000 </r>
       <r>   41.2601    0.0000 </r>
       <r>   41.5623    0.0000 </r>
       <r>   41.9577    0.0000 </r>
       <r>   46.6721    0.0000 </r>
       <r>   47.2006    0.0000 </r>
       <r>   47.7750    0.0000 </r>
       <r>   50.0388    0.0000 </r>
       <r>   52.4628    0.0000 </r>
      </set>
      <set comment="kpoint 15">
       <r>   -1.3307    1.0000 </r>
       <r>    1.3673    1.0000 </r>
       <r>    1.5025    1.0000 </r>
       <r>    2.9194    1.0000 </r>
       <r>    3.1044    1.0000 </r>
       <r>    4.0643    1.0000 </r>
       <r>    4.0769    1.0000 </r>
       <r>    4.2908    1.0000 </r>
       <r>    4.4889    1.0000 </r>
       <r>    4.7884    1.0000 </r>
       <r>    5.5907    0.2171 </r>
       <r>   12.1212    0.0000 </r>
       <r>   13.6599    0.0000 </r>
       <r>   16.8511    0.0000 </r>
       <r>   22.7982    0.0000 </r>
       <r>   23.9617    0.0000 </r>
       <r>   25.5639    0.0000 </r>
       <r>   26.8390    0.0000 </r>
       <r>   29.8012    0.0000 </r>
       <r>   29.9020    0.0000 </r>
       <r>   30.3355    0.0000 </r>
       <r>   34.1854    0.0000 </r>
       <r>   35.0112    0.0000 </r>
       <r>   38.2264    0.0000 </r>
       <r>   38.9657    0.0000 </r>
       <r>   40.0648    0.0000 </r>
       <r>   43.9986    0.0000 </r>
       <r>   44.0392    0.0000 </r>
       <r>   44.8383    0.0000 </r>
       <r>   46.4641    0.0000 </r>
       <r>   49.4357    0.0000 </r>
       <r>   51.8089    0.0000 </r>
      </set>
      <set comment="kpoint 16">
       <r>   -1.9007    1.0000 </r>
       <r>    1.2061    1.0000 </r>
       <r>    1.2115    1.0000 </r>
       <r>    3.1410    1.0000 </r>
       <r>    3.2013    1.0000 </r>
       <r>    3.6658    1.0000 </r>
       <r>    4.2062    1.0000 </r>
       <r>    4.5498    1.0000 </r>
       <r>    4.7011    1.0000 </r>
       <r>    5.0813    1.0042 </r>
       <r>    5.4908    0.6182 </r>
       <r>   11.9864    0.0000 </r>
       <r>   15.8448    0.0000 </r>
       <r>   16.1091    0.0000 </r>
       <r>   21.9278    0.0000 </r>
       <r>   23.3467    0.0000 </r>
       <r>   26.4288    0.0000 </r>
       <r>   27.8319    0.0000 </r>
       <r>   28.6029    0.0000 </r>
       <r>   29.9001    0.0000 </r>
       <r>   32.1864    0.0000 </r>
       <r>   32.9400    0.0000 </r>
       <r>   34.8884    0.0000 </r>
       <r>   38.2378    0.0000 </r>
       <r>   39.0349    0.0000 </r>
       <r>   41.5345    0.0000 </r>
       <r>   41.8821    0.0000 </r>
       <r>   43.0002    0.0000 </r>
       <r>   44.0824    0.0000 </r>
       <r>   46.6902    0.0000 </r>
       <r>   47.1732    0.0000 </r>
       <r>   51.5854    0.0000 </r>
      </set>
      <set comment="kpoint 17">
       <r>   -0.7887    1.0000 </r>
       <r>    1.4917    1.0000 </r>
       <r>    1.6732    1.0000 </r>
       <r>    3.1607    1.0000 </r>
       <r>    3.1706    1.0000 </r>
       <r>    3.8296    1.0000 </r>
       <r>    4.0199    1.0000 </r>
       <r>    4.1014    1.0000 </r>
       <r>    4.4792    1.0000 </r>
       <r>    4.7633    1.0000 </r>
       <r>    5.2323    1.0305 </r>
       <r>    8.9539   -0.0000 </r>
       <r>   17.5643    0.0000 </r>
       <r>   17.8364    0.0000 </r>
       <r>   22.5696    0.0000 </r>
       <r>   23.9439    0.0000 </r>
       <r>   24.2998    0.0000 </r>
       <r>   25.2360    0.0000 </r>
       <r>   27.8161    0.0000 </r>
       <r>   29.5782    0.0000 </r>
       <r>   32.9638    0.0000 </r>
       <r>   33.4285    0.0000 </r>
       <r>   35.6549    0.0000 </r>
       <r>   39.1289    0.0000 </r>
       <r>   39.2866    0.0000 </r>
       <r>   43.6660    0.0000 </r>
       <r>   43.6859    0.0000 </r>
       <r>   43.8745    0.0000 </r>
       <r>   44.1250    0.0000 </r>
       <r>   46.7749    0.0000 </r>
       <r>   48.5532    0.0000 </r>
       <r>   49.8213    0.0000 </r>
      </set>
      <set comment="kpoint 18">
       <r>   -0.3330    1.0000 </r>
       <r>    1.5460    1.0000 </r>
       <r>    1.9570    1.0000 </r>
       <r>    2.7952    1.0000 </r>
       <r>    3.0440    1.0000 </r>
       <r>    3.5078    1.0000 </r>
       <r>    4.1508    1.0000 </r>
       <r>    4.3341    1.0000 </r>
       <r>    4.5259    1.0000 </r>
       <r>    4.6782    1.0000 </r>
       <r>    5.5153    0.5156 </r>
       <r>    9.4911   -0.0000 </r>
       <r>   14.6479    0.0000 </r>
       <r>   18.3659    0.0000 </r>
       <r>   21.1545    0.0000 </r>
       <r>   23.4381    0.0000 </r>
       <r>   24.8942    0.0000 </r>
       <r>   27.3715    0.0000 </r>
       <r>   28.0952    0.0000 </r>
       <r>   30.2409    0.0000 </r>
       <r>   33.2183    0.0000 </r>
       <r>   33.4012    0.0000 </r>
       <r>   34.8266    0.0000 </r>
       <r>   36.6864    0.0000 </r>
       <r>   41.2601    0.0000 </r>
       <r>   41.5623    0.0000 </r>
       <r>   41.9577    0.0000 </r>
       <r>   46.6721    0.0000 </r>
       <r>   47.2006    0.0000 </r>
       <r>   47.7750    0.0000 </r>
       <r>   50.0388    0.0000 </r>
       <r>   52.4628    0.0000 </r>
      </set>
      <set comment="kpoint 19">
       <r>    0.3227    1.0000 </r>
       <r>    1.4025    1.0000 </r>
       <r>    2.5255    1.0000 </r>
       <r>    2.5719    1.0000 </r>
       <r>    2.9772    1.0000 </r>
       <r>    3.2878    1.0000 </r>
       <r>    4.1991    1.0000 </r>
       <r>    4.3883    1.0000 </r>
       <r>    4.5675    1.0000 </r>
       <r>    5.1020    1.0060 </r>
       <r>    5.6658    0.0288 </r>
       <r>    9.3179   -0.0000 </r>
       <r>   12.8916    0.0000 </r>
       <r>   18.2114    0.0000 </r>
       <r>   19.5709    0.0000 </r>
       <r>   23.9383    0.0000 </r>
       <r>   24.6044    0.0000 </r>
       <r>   26.7594    0.0000 </r>
       <r>   29.6162    0.0000 </r>
       <r>   30.9588    0.0000 </r>
       <r>   32.6296    0.0000 </r>
       <r>   33.1151    0.0000 </r>
       <r>   35.8735    0.0000 </r>
       <r>   37.7040    0.0000 </r>
       <r>   39.3709    0.0000 </r>
       <r>   39.5582    0.0000 </r>
       <r>   45.3211    0.0000 </r>
       <r>   48.5205    0.0000 </r>
       <r>   50.5765    0.0000 </r>
       <r>   51.4893    0.0000 </r>
       <r>   51.6327    0.0000 </r>
       <r>   52.3323    0.0000 </r>
      </set>
      <set comment="kpoint 20">
       <r>    0.8171    1.0000 </r>
       <r>    1.1443    1.0000 </r>
       <r>    2.4523    1.0000 </r>
       <r>    2.6034    1.0000 </r>
       <r>    3.2098    1.0000 </r>
       <r>    3.5802    1.0000 </r>
       <r>    4.2939    1.0000 </r>
       <r>    4.4266    1.0000 </r>
       <r>    4.9633    1.0003 </r>
       <r>    5.5316    0.4468 </r>
       <r>    5.7751   -0.0350 </r>
       <r>    7.3775   -0.0000 </r>
       <r>   13.7747    0.0000 </r>
       <r>   15.7090    0.0000 </r>
       <r>   21.1955    0.0000 </r>
       <r>   23.0506    0.0000 </r>
       <r>   24.7115    0.0000 </r>
       <r>   25.7232    0.0000 </r>
       <r>   29.7484    0.0000 </r>
       <r>   30.8829    0.0000 </r>
       <r>   33.4729    0.0000 </r>
       <r>   33.4911    0.0000 </r>
       <r>   35.5080    0.0000 </r>
       <r>   36.3756    0.0000 </r>
       <r>   41.1042    0.0000 </r>
       <r>   42.8141    0.0000 </r>
       <r>   47.5216    0.0000 </r>
       <r>   47.8402    0.0000 </r>
       <r>   49.7774    0.0000 </r>
       <r>   50.2202    0.0000 </r>
       <r>   52.4642    0.0000 </r>
       <r>   52.9417    0.0000 </r>
      </set>
      <set comment="kpoint 21">
       <r>    0.8171    1.0000 </r>
       <r>    1.1443    1.0000 </r>
       <r>    2.4523    1.0000 </r>
       <r>    2.6034    1.0000 </r>
       <r>    3.2098    1.0000 </r>
       <r>    3.5802    1.0000 </r>
       <r>    4.2939    1.0000 </r>
       <r>    4.4266    1.0000 </r>
       <r>    4.9633    1.0003 </r>
       <r>    5.5316    0.4468 </r>
       <r>    5.7751   -0.0350 </r>
       <r>    7.3775   -0.0000 </r>
       <r>   13.7747    0.0000 </r>
       <r>   15.7090    0.0000 </r>
       <r>   21.1955    0.0000 </r>
       <r>   23.0506    0.0000 </r>
       <r>   24.7115    0.0000 </r>
       <r>   25.7232    0.0000 </r>
       <r>   29.7484    0.0000 </r>
       <r>   30.8829    0.0000 </r>
       <r>   33.4729    0.0000 </r>
       <r>   33.4911    0.0000 </r>
       <r>   35.5080    0.0000 </r>
       <r>   36.3756    0.0000 </r>
       <r>   41.1042    0.0000 </r>
       <r>   42.8141    0.0000 </r>
       <r>   47.5216    0.0000 </r>
       <r>   47.8402    0.0000 </r>
       <r>   49.7774    0.0000 </r>
       <r>   50.2202    0.0000 </r>
       <r>   52.4642    0.0000 </r>
       <r>   52.9417    0.0000 </r>
      </set>
      <set comment="kpoint 22">
       <r>    0.3227    1.0000 </r>
       <r>    1.4025    1.0000 </r>
       <r>    2.5255    1.0000 </r>
       <r>    2.5719    1.0000 </r>
       <r>    2.9772    1.0000 </r>
       <r>    3.2878    1.0000 </r>
       <r>    4.1991    1.0000 </r>
       <r>    4.3883    1.0000 </r>
       <r>    4.5675    1.0000 </r>
       <r>    5.1020    1.0060 </r>
       <r>    5.6658    0.0288 </r>
       <r>    9.3179   -0.0000 </r>
       <r>   12.8916    0.0000 </r>
       <r>   18.2114    0.0000 </r>
       <r>   19.5709    0.0000 </r>
       <r>   23.9383    0.0000 </r>
       <r>   24.6044    0.0000 </r>
       <r>   26.7594    0.0000 </r>
       <r>   29.6162    0.0000 </r>
       <r>   30.9588    0.0000 </r>
       <r>   32.6296    0.0000 </r>
       <r>   33.1151    0.0000 </r>
       <r>   35.8735    0.0000 </r>
       <r>   37.7040    0.0000 </r>
       <r>   39.3709    0.0000 </r>
       <r>   39.5582    0.0000 </r>
       <r>   45.3211    0.0000 </r>
       <r>   48.5205    0.0000 </r>
       <r>   50.5765    0.0000 </r>
       <r>   51.4893    0.0000 </r>
       <r>   51.6327    0.0000 </r>
       <r>   52.3323    0.0000 </r>
      </set>
      <set comment="kpoint 23">
       <r>   -0.3330    1.0000 </r>
       <r>    1.5460    1.0000 </r>
       <r>    1.9570    1.0000 </r>
       <r>    2.7952    1.0000 </r>
       <r>    3.0440    1.0000 </r>
       <r>    3.5078    1.0000 </r>
       <r>    4.1508    1.0000 </r>
       <r>    4.3341    1.0000 </r>
       <r>    4.5259    1.0000 </r>
       <r>    4.6782    1.0000 </r>
       <r>    5.5153    0.5156 </r>
       <r>    9.4911   -0.0000 </r>
       <r>   14.6479    0.0000 </r>
       <r>   18.3659    0.0000 </r>
       <r>   21.1545    0.0000 </r>
       <r>   23.4381    0.0000 </r>
       <r>   24.8942    0.0000 </r>
       <r>   27.3715    0.0000 </r>
       <r>   28.0952    0.0000 </r>
       <r>   30.2409    0.0000 </r>
       <r>   33.2183    0.0000 </r>
       <r>   33.4012    0.0000 </r>
       <r>   34.8266    0.0000 </r>
       <r>   36.6864    0.0000 </r>
       <r>   41.2601    0.0000 </r>
       <r>   41.5623    0.0000 </r>
       <r>   41.9577    0.0000 </r>
       <r>   46.6721    0.0000 </r>
       <r>   47.2006    0.0000 </r>
       <r>   47.7750    0.0000 </r>
       <r>   50.0388    0.0000 </r>
       <r>   52.4628    0.0000 </r>
      </set>
      <set comment="kpoint 24">
       <r>   -0.7887    1.0000 </r>
       <r>    1.4917    1.0000 </r>
       <r>    1.6732    1.0000 </r>
       <r>    3.1607    1.0000 </r>
       <r>    3.1706    1.0000 </r>
       <r>    3.8296    1.0000 </r>
       <r>    4.0199    1.0000 </r>
       <r>    4.1014    1.0000 </r>
       <r>    4.4792    1.0000 </r>
       <r>    4.7633    1.0000 </r>
       <r>    5.2323    1.0305 </r>
       <r>    8.9539   -0.0000 </r>
       <r>   17.5643    0.0000 </r>
       <r>   17.8364    0.0000 </r>
       <r>   22.5696    0.0000 </r>
       <r>   23.9439    0.0000 </r>
       <r>   24.2998    0.0000 </r>
       <r>   25.2360    0.0000 </r>
       <r>   27.8161    0.0000 </r>
       <r>   29.5782    0.0000 </r>
       <r>   32.9638    0.0000 </r>
       <r>   33.4285    0.0000 </r>
       <r>   35.6549    0.0000 </r>
       <r>   39.1289    0.0000 </r>
       <r>   39.2866    0.0000 </r>
       <r>   43.6660    0.0000 </r>
       <r>   43.6859    0.0000 </r>
       <r>   43.8745    0.0000 </r>
       <r>   44.1250    0.0000 </r>
       <r>   46.7749    0.0000 </r>
       <r>   48.5532    0.0000 </r>
       <r>   49.8213    0.0000 </r>
      </set>
      <set comment="kpoint 25">
       <r>    0.5138    1.0000 </r>
       <r>    1.3882    1.0000 </r>
       <r>    2.2718    1.0000 </r>
       <r>    2.8677    1.0000 </r>
       <r>    3.3517    1.0000 </r>
       <r>    3.6482    1.0000 </r>
       <r>    3.6816    1.0000 </r>
       <r>    3.9638    1.0000 </r>
       <r>    4.4336    1.0000 </r>
       <r>    4.8492    1.0000 </r>
       <r>    5.2472    1.0332 </r>
       <r>    6.5661   -0.0000 </r>
       <r>   19.6076    0.0000 </r>
       <r>   20.0190    0.0000 </r>
       <r>   21.7291    0.0000 </r>
       <r>   22.5093    0.0000 </r>
       <r>   23.7173    0.0000 </r>
       <r>   25.4074    0.0000 </r>
       <r>   25.5118    0.0000 </r>
       <r>   27.1628    0.0000 </r>
       <r>   35.0149    0.0000 </r>
       <r>   36.7836    0.0000 </r>
       <r>   37.7362    0.0000 </r>
       <r>   38.5109    0.0000 </r>
       <r>   40.1967    0.0000 </r>
       <r>   40.4939    0.0000 </r>
       <r>   42.0273    0.0000 </r>
       <r>   43.6540    0.0000 </r>
       <r>   46.3684    0.0000 </r>
       <r>   47.7971    0.0000 </r>
       <r>   49.3425    0.0000 </r>
       <r>   51.9443    0.0000 </r>
      </set>
      <set comment="kpoint 26">
       <r>    0.7301    1.0000 </r>
       <r>    1.4050    1.0000 </r>
       <r>    2.4215    1.0000 </r>
       <r>    2.7428    1.0000 </r>
       <r>    3.0028    1.0000 </r>
       <r>    3.1523    1.0000 </r>
       <r>    4.0867    1.0000 </r>
       <r>    4.1136    1.0000 </r>
       <r>    4.8567    1.0000 </r>
       <r>    5.2330    1.0306 </r>
       <r>    5.3717    0.9720 </r>
       <r>    6.9691   -0.0000 </r>
       <r>   16.4648    0.0000 </r>
       <r>   18.6404    0.0000 </r>
       <r>   20.3145    0.0000 </r>
       <r>   22.5220    0.0000 </r>
       <r>   24.4920    0.0000 </r>
       <r>   26.1133    0.0000 </r>
       <r>   28.7606    0.0000 </r>
       <r>   30.1104    0.0000 </r>
       <r>   32.6623    0.0000 </r>
       <r>   33.8423    0.0000 </r>
       <r>   36.1742    0.0000 </r>
       <r>   37.6090    0.0000 </r>
       <r>   40.0440    0.0000 </r>
       <r>   43.2585    0.0000 </r>
       <r>   44.3259    0.0000 </r>
       <r>   45.4841    0.0000 </r>
       <r>   47.6478    0.0000 </r>
       <r>   49.2275    0.0000 </r>
       <r>   51.1939    0.0000 </r>
       <r>   52.1866    0.0000 </r>
      </set>
      <set comment="kpoint 27">
       <r>    0.8171    1.0000 </r>
       <r>    1.1443    1.0000 </r>
       <r>    2.4523    1.0000 </r>
       <r>    2.6034    1.0000 </r>
       <r>    3.2098    1.0000 </r>
       <r>    3.5802    1.0000 </r>
       <r>    4.2939    1.0000 </r>
       <r>    4.4266    1.0000 </r>
       <r>    4.9633    1.0003 </r>
       <r>    5.5316    0.4468 </r>
       <r>    5.7751   -0.0350 </r>
       <r>    7.3775   -0.0000 </r>
       <r>   13.7747    0.0000 </r>
       <r>   15.7090    0.0000 </r>
       <r>   21.1955    0.0000 </r>
       <r>   23.0506    0.0000 </r>
       <r>   24.7115    0.0000 </r>
       <r>   25.7232    0.0000 </r>
       <r>   29.7484    0.0000 </r>
       <r>   30.8829    0.0000 </r>
       <r>   33.4729    0.0000 </r>
       <r>   33.4911    0.0000 </r>
       <r>   35.5080    0.0000 </r>
       <r>   36.3756    0.0000 </r>
       <r>   41.1042    0.0000 </r>
       <r>   42.8141    0.0000 </r>
       <r>   47.5216    0.0000 </r>
       <r>   47.8402    0.0000 </r>
       <r>   49.7774    0.0000 </r>
       <r>   50.2202    0.0000 </r>
       <r>   52.4642    0.0000 </r>
       <r>   52.9417    0.0000 </r>
      </set>
      <set comment="kpoint 28">
       <r>    0.8052    1.0000 </r>
       <r>    0.9005    1.0000 </r>
       <r>    2.2637    1.0000 </r>
       <r>    2.3192    1.0000 </r>
       <r>    4.0715    1.0000 </r>
       <r>    4.4511    1.0000 </r>
       <r>    4.4720    1.0000 </r>
       <r>    4.6340    1.0000 </r>
       <r>    4.9297    1.0001 </r>
       <r>    5.5211    0.4909 </r>
       <r>    6.3104   -0.0000 </r>
       <r>    7.1104   -0.0000 </r>
       <r>   12.6475    0.0000 </r>
       <r>   13.5331    0.0000 </r>
       <r>   22.3577    0.0000 </r>
       <r>   23.2767    0.0000 </r>
       <r>   24.8127    0.0000 </r>
       <r>   24.9332    0.0000 </r>
       <r>   29.2282    0.0000 </r>
       <r>   29.5934    0.0000 </r>
       <r>   32.9167    0.0000 </r>
       <r>   33.5700    0.0000 </r>
       <r>   37.3396    0.0000 </r>
       <r>   39.6289    0.0000 </r>
       <r>   41.8364    0.0000 </r>
       <r>   43.3347    0.0000 </r>
       <r>   46.3143    0.0000 </r>
       <r>   46.9724    0.0000 </r>
       <r>   50.8262    0.0000 </r>
       <r>   51.9456    0.0000 </r>
       <r>   52.4778    0.0000 </r>
       <r>   54.5307    0.0000 </r>
      </set>
      <set comment="kpoint 29">
       <r>    0.8052    1.0000 </r>
       <r>    0.9005    1.0000 </r>
       <r>    2.2637    1.0000 </r>
       <r>    2.3192    1.0000 </r>
       <r>    4.0715    1.0000 </r>
       <r>    4.4511    1.0000 </r>
       <r>    4.4720    1.0000 </r>
       <r>    4.6340    1.0000 </r>
       <r>    4.9297    1.0001 </r>
       <r>    5.5211    0.4909 </r>
       <r>    6.3104   -0.0000 </r>
       <r>    7.1104   -0.0000 </r>
       <r>   12.6475    0.0000 </r>
       <r>   13.5331    0.0000 </r>
       <r>   22.3577    0.0000 </r>
       <r>   23.2767    0.0000 </r>
       <r>   24.8127    0.0000 </r>
       <r>   24.9332    0.0000 </r>
       <r>   29.2282    0.0000 </r>
       <r>   29.5934    0.0000 </r>
       <r>   32.9167    0.0000 </r>
       <r>   33.5700    0.0000 </r>
       <r>   37.3396    0.0000 </r>
       <r>   39.6289    0.0000 </r>
       <r>   41.8364    0.0000 </r>
       <r>   43.3347    0.0000 </r>
       <r>   46.3143    0.0000 </r>
       <r>   46.9724    0.0000 </r>
       <r>   50.8262    0.0000 </r>
       <r>   51.9456    0.0000 </r>
       <r>   52.4778    0.0000 </r>
       <r>   54.5307    0.0000 </r>
      </set>
      <set comment="kpoint 30">
       <r>    0.8171    1.0000 </r>
       <r>    1.1443    1.0000 </r>
       <r>    2.4523    1.0000 </r>
       <r>    2.6034    1.0000 </r>
[...]
       <r>    39.3574     0.9212    23.6820 </r>
       <r>    39.5684     0.5259    23.7930 </r>
       <r>    39.7795     0.3808    23.8734 </r>
       <r>    39.9906     0.3340    23.9438 </r>
       <r>    40.2016     1.0428    24.1639 </r>
       <r>    40.4127     0.8601    24.3455 </r>
       <r>    40.6238     0.2965    24.4081 </r>
       <r>    40.8348     0.0404    24.4166 </r>
       <r>    41.0459     0.1204    24.4420 </r>
       <r>    41.2570     0.5842    24.5653 </r>
       <r>    41.4680     0.7569    24.7251 </r>
       <r>    41.6791     0.7653    24.8866 </r>
       <r>    41.8902     0.9409    25.0852 </r>
       <r>    42.1012     1.2382    25.3466 </r>
       <r>    42.3123     0.4973    25.4515 </r>
       <r>    42.5234     0.5804    25.5740 </r>
       <r>    42.7344     0.4324    25.6653 </r>
       <r>    42.9455     0.5735    25.7863 </r>
       <r>    43.1566     0.5149    25.8950 </r>
       <r>    43.3677     0.7953    26.0629 </r>
       <r>    43.5787     0.4295    26.1535 </r>
       <r>    43.7898     0.7035    26.3020 </r>
       <r>    44.0009     0.5330    26.4145 </r>
       <r>    44.2119     1.0373    26.6335 </r>
       <r>    44.4230     0.5226    26.7438 </r>
       <r>    44.6341     0.0887    26.7625 </r>
       <r>    44.8451     0.4131    26.8497 </r>
       <r>    45.0562     0.4718    26.9492 </r>
       <r>    45.2673     0.1185    26.9742 </r>
       <r>    45.4783     1.0724    27.2006 </r>
       <r>    45.6894     1.0498    27.4222 </r>
       <r>    45.9005     0.0063    27.4235 </r>
       <r>    46.1115     0.1269    27.4503 </r>
       <r>    46.3226     0.4164    27.5382 </r>
       <r>    46.5337     0.7501    27.6965 </r>
       <r>    46.7447     0.9972    27.9070 </r>
       <r>    46.9558     0.8331    28.0828 </r>
       <r>    47.1669     0.8801    28.2685 </r>
       <r>    47.3779     0.8686    28.4519 </r>
       <r>    47.5890     0.8168    28.6243 </r>
       <r>    47.8001     1.0635    28.8488 </r>
       <r>    48.0111     0.6186    28.9793 </r>
       <r>    48.2222     0.1864    29.0187 </r>
       <r>    48.4333     0.1848    29.0577 </r>
       <r>    48.6443     0.5395    29.1715 </r>
       <r>    48.8554     0.2365    29.2214 </r>
       <r>    49.0665     0.0039    29.2223 </r>
       <r>    49.2775     0.5260    29.3333 </r>
       <r>    49.4886     0.9982    29.5440 </r>
       <r>    49.6997     0.4254    29.6338 </r>
       <r>    49.9107     0.5919    29.7587 </r>
       <r>    50.1218     0.7202    29.9107 </r>
       <r>    50.3329     1.2073    30.1655 </r>
       <r>    50.5439     0.4848    30.2678 </r>
       <r>    50.7550     0.4528    30.3634 </r>
       <r>    50.9661     0.4821    30.4652 </r>
       <r>    51.1771     0.4355    30.5571 </r>
       <r>    51.3882     0.4044    30.6424 </r>
       <r>    51.5993     0.7108    30.7925 </r>
       <r>    51.8103     0.6199    30.9233 </r>
       <r>    52.0214     0.4234    31.0127 </r>
       <r>    52.2325     0.6748    31.1551 </r>
       <r>    52.4435     1.1593    31.3998 </r>
       <r>    52.6546     0.7396    31.5559 </r>
       <r>    52.8657     0.4910    31.6595 </r>
       <r>    53.0767     0.5680    31.7794 </r>
       <r>    53.2878     0.0172    31.7831 </r>
       <r>    53.4989    -0.0064    31.7817 </r>
       <r>    53.7099     0.1043    31.8037 </r>
       <r>    53.9210     0.0395    31.8121 </r>
       <r>    54.1321     0.0043    31.8130 </r>
       <r>    54.3431     0.4135    31.9002 </r>
       <r>    54.5542     0.4040    31.9855 </r>
       <r>    54.7653     0.0788    32.0021 </r>
       <r>    54.9763    -0.0093    32.0002 </r>
       <r>    55.1874    -0.0008    32.0000 </r>
       <r>    55.3985    -0.0000    32.0000 </r>
       <r>    55.6095    -0.0000    32.0000 </r>
       <r>    55.8206    -0.0000    32.0000 </r>
       <r>    56.0317     0.0000    32.0000 </r>
       <r>    56.2427     0.0000    32.0000 </r>
       <r>    56.4538     0.0000    32.0000 </r>
       <r>    56.6649     0.0000    32.0000 </r>
       <r>    56.8759     0.0000    32.0000 </r>
       <r>    57.0870     0.0000    32.0000 </r>
       <r>    57.2981     0.0000    32.0000 </r>
       <r>    57.5091     0.0000    32.0000 </r>
       <r>    57.7202     0.0000    32.0000 </r>
       <r>    57.9313     0.0000    32.0000 </r>
      </set>
      <set comment="spin 2">
       <r>    -5.3888     0.0000     0.0000 </r>
       <r>    -5.1777     0.0000     0.0000 </r>
       <r>    -4.9667     0.0000     0.0000 </r>
       <r>    -4.7556     0.0000     0.0000 </r>
       <r>    -4.5445     0.0000     0.0000 </r>
       <r>    -4.3335     0.0000     0.0000 </r>
       <r>    -4.1224    -0.0000    -0.0000 </r>
       <r>    -3.9113    -0.0000    -0.0000 </r>
       <r>    -3.7003    -0.0000    -0.0000 </r>
       <r>    -3.4892    -0.0000    -0.0000 </r>
       <r>    -3.2781    -0.0000    -0.0000 </r>
       <r>    -3.0671    -0.0000    -0.0000 </r>
       <r>    -2.8560    -0.0000    -0.0000 </r>
       <r>    -2.6449    -0.0016    -0.0003 </r>
       <r>    -2.4339     0.0083     0.0014 </r>
       <r>    -2.2228     0.0567     0.0134 </r>
       <r>    -2.0117     0.0070     0.0148 </r>
       <r>    -1.8007     0.0331     0.0218 </r>
       <r>    -1.5896     0.1702     0.0578 </r>
       <r>    -1.3785     0.0198     0.0619 </r>
       <r>    -1.1675     0.0667     0.0760 </r>
       <r>    -0.9564     0.1535     0.1084 </r>
       <r>    -0.7453     0.0005     0.1085 </r>
       <r>    -0.5343     0.1696     0.1443 </r>
       <r>    -0.3232     0.1268     0.1711 </r>
       <r>    -0.1121     0.0996     0.1921 </r>
       <r>     0.0989     0.3265     0.2610 </r>
       <r>     0.3100     0.0301     0.2674 </r>
       <r>     0.5211     0.1385     0.2966 </r>
       <r>     0.7321     0.1076     0.3193 </r>
       <r>     0.9432     0.2787     0.3781 </r>
       <r>     1.1543     0.1570     0.4113 </r>
       <r>     1.3653     0.4447     0.5051 </r>
       <r>     1.5764     0.2303     0.5537 </r>
       <r>     1.7875     0.4284     0.6442 </r>
       <r>     1.9985     0.2688     0.7009 </r>
       <r>     2.2096     0.4686     0.7998 </r>
       <r>     2.4207     0.8923     0.9881 </r>
       <r>     2.6317     0.8833     1.1746 </r>
       <r>     2.8428     0.7040     1.3232 </r>
       <r>     3.0539     1.1316     1.5620 </r>
       <r>     3.2649     1.2869     1.8336 </r>
       <r>     3.4760     0.9460     2.0333 </r>
       <r>     3.6871     0.5583     2.1512 </r>
       <r>     3.8981     1.4216     2.4512 </r>
       <r>     4.1092     2.2023     2.9160 </r>
       <r>     4.3203     2.8324     3.5139 </r>
       <r>     4.5313     2.4771     4.0367 </r>
       <r>     4.7424     2.1245     4.4851 </r>
       <r>     4.9535     2.6972     5.0544 </r>
       <r>     5.1645     2.0080     5.4782 </r>
       <r>     5.3756     0.7891     5.6448 </r>
       <r>     5.5867     0.6535     5.7827 </r>
       <r>     5.7977     0.5999     5.9093 </r>
       <r>     6.0088     0.5206     6.0192 </r>
       <r>     6.2199     0.7653     6.1808 </r>
       <r>     6.4309     1.1348     6.4203 </r>
       <r>     6.6420     1.7221     6.7838 </r>
       <r>     6.8531     2.0629     7.2192 </r>
       <r>     7.0641     2.6780     7.7844 </r>
       <r>     7.2752     2.8256     8.3808 </r>
       <r>     7.4863     4.5358     9.3382 </r>
       <r>     7.6973     3.2583    10.0259 </r>
       <r>     7.9084     2.0479    10.4581 </r>
       <r>     8.1195     1.0556    10.6809 </r>
       <r>     8.3305     0.2167    10.7266 </r>
       <r>     8.5416     0.1512    10.7586 </r>
       <r>     8.7527     0.6660    10.8991 </r>
       <r>     8.9637     0.8667    11.0821 </r>
       <r>     9.1748     0.2112    11.1266 </r>
       <r>     9.3859     0.1579    11.1600 </r>
       <r>     9.5969     0.2746    11.2179 </r>
       <r>     9.8080     0.0946    11.2379 </r>
       <r>    10.0191     0.3935    11.3209 </r>
       <r>    10.2301     0.5148    11.4296 </r>
       <r>    10.4412     0.1694    11.4653 </r>
       <r>    10.6523     0.2268    11.5132 </r>
       <r>    10.8633     0.4328    11.6046 </r>
       <r>    11.0744     0.1748    11.6415 </r>
       <r>    11.2855     0.1090    11.6645 </r>
       <r>    11.4965     0.2429    11.7157 </r>
       <r>    11.7076     0.2782    11.7745 </r>
       <r>    11.9187     0.2109    11.8190 </r>
       <r>    12.1297     0.0486    11.8292 </r>
       <r>    12.3408     0.0077    11.8309 </r>
       <r>    12.5519     0.0478    11.8410 </r>
       <r>    12.7629     0.0875    11.8594 </r>
       <r>    12.9740     0.2323    11.9084 </r>
       <r>    13.1851     0.1733    11.9450 </r>
       <r>    13.3961     0.1071    11.9676 </r>
       <r>    13.6072     0.0021    11.9681 </r>
       <r>    13.8183    -0.0090    11.9662 </r>
       <r>    14.0293     0.3985    12.0503 </r>
       <r>    14.2404     0.8597    12.2317 </r>
       <r>    14.4515     0.2026    12.2745 </r>
       <r>    14.6625     0.1413    12.3043 </r>
       <r>    14.8736     0.3223    12.3723 </r>
       <r>    15.0847     0.7291    12.5262 </r>
       <r>    15.2958     0.6339    12.6600 </r>
       <r>    15.5068     0.3693    12.7380 </r>
       <r>    15.7179     0.7127    12.8884 </r>
       <r>    15.9290     0.1750    12.9253 </r>
       <r>    16.1400     0.0020    12.9257 </r>
       <r>    16.3511     0.2456    12.9776 </r>
       <r>    16.5622     0.5197    13.0872 </r>
       <r>    16.7732     0.5467    13.2026 </r>
       <r>    16.9843     0.3913    13.2852 </r>
       <r>    17.1954     0.5131    13.3935 </r>
       <r>    17.4064     0.7483    13.5515 </r>
       <r>    17.6175     0.5892    13.6758 </r>
       <r>    17.8286    -0.0269    13.6702 </r>
       <r>    18.0396     0.1797    13.7081 </r>
       <r>    18.2507     0.3402    13.7799 </r>
       <r>    18.4618     0.2926    13.8417 </r>
       <r>    18.6728     0.6204    13.9726 </r>
       <r>    18.8839     0.2414    14.0235 </r>
       <r>    19.0950     0.4406    14.1165 </r>
       <r>    19.3060     0.2953    14.1789 </r>
       <r>    19.5171     0.6807    14.3225 </r>
       <r>    19.7282     0.4316    14.4136 </r>
       <r>    19.9392     0.2166    14.4594 </r>
       <r>    20.1503     0.2074    14.5031 </r>
       <r>    20.3614     0.3857    14.5846 </r>
       <r>    20.5724     0.4589    14.6814 </r>
       <r>    20.7835     0.2893    14.7425 </r>
       <r>    20.9946     0.3027    14.8064 </r>
       <r>    21.2056     0.4963    14.9111 </r>
       <r>    21.4167     0.1827    14.9497 </r>
       <r>    21.6278     0.0973    14.9702 </r>
       <r>    21.8388     0.9402    15.1687 </r>
       <r>    22.0499     0.3385    15.2401 </r>
       <r>    22.2610     0.0214    15.2446 </r>
       <r>    22.4720     0.3978    15.3286 </r>
       <r>    22.6831     0.6236    15.4602 </r>
       <r>    22.8942     0.3969    15.5440 </r>
       <r>    23.1052     0.3261    15.6128 </r>
       <r>    23.3163     0.5547    15.7299 </r>
       <r>    23.5274     0.7595    15.8902 </r>
       <r>    23.7384     0.3953    15.9736 </r>
       <r>    23.9495     0.3138    16.0399 </r>
       <r>    24.1606     0.6149    16.1696 </r>
       <r>    24.3716     0.7072    16.3189 </r>
       <r>    24.5827     0.7328    16.4736 </r>
       <r>    24.7938     0.3215    16.5414 </r>
       <r>    25.0048     0.6821    16.6854 </r>
       <r>    25.2159     0.7169    16.8367 </r>
       <r>    25.4270     0.4818    16.9384 </r>
       <r>    25.6380     0.1793    16.9763 </r>
       <r>    25.8491     0.2604    17.0312 </r>
       <r>    26.0602     0.7174    17.1826 </r>
       <r>    26.2712     0.8169    17.3550 </r>
       <r>    26.4823     0.3602    17.4311 </r>
       <r>    26.6934     0.6313    17.5643 </r>
       <r>    26.9044     0.1652    17.5992 </r>
       <r>    27.1155     0.1452    17.6298 </r>
       <r>    27.3266     0.2960    17.6923 </r>
       <r>    27.5376     0.5037    17.7986 </r>
       <r>    27.7487     0.6245    17.9304 </r>
       <r>    27.9598     0.3399    18.0022 </r>
       <r>    28.1708     0.2990    18.0653 </r>
       <r>    28.3819     0.4776    18.1661 </r>
       <r>    28.5930     0.5746    18.2874 </r>
       <r>    28.8040     0.2061    18.3309 </r>
       <r>    29.0151     0.0565    18.3428 </r>
       <r>    29.2262     0.3993    18.4271 </r>
       <r>    29.4372     0.1350    18.4556 </r>
       <r>    29.6483     0.2213    18.5023 </r>
       <r>    29.8594     0.3221    18.5703 </r>
       <r>    30.0704     0.5056    18.6770 </r>
       <r>    30.2815     1.0146    18.8911 </r>
       <r>    30.4926     0.5865    19.0149 </r>
       <r>    30.7036     0.8753    19.1997 </r>
       <r>    30.9147     0.6867    19.3446 </r>
       <r>    31.1258     0.1234    19.3707 </r>
       <r>    31.3368     0.2670    19.4270 </r>
       <r>    31.5479     0.4309    19.5180 </r>
       <r>    31.7590     0.2822    19.5775 </r>
       <r>    31.9700     0.4625    19.6751 </r>
       <r>    32.1811     0.5891    19.7995 </r>
       <r>    32.3922     0.0728    19.8149 </r>
       <r>    32.6032     0.2666    19.8711 </r>
       <r>    32.8143     0.5121    19.9792 </r>
       <r>    33.0254     0.3112    20.0449 </r>
       <r>    33.2364     0.4736    20.1449 </r>
       <r>    33.4475     0.2923    20.2066 </r>
       <r>    33.6586     0.3594    20.2824 </r>
       <r>    33.8696     1.3533    20.5681 </r>
       <r>    34.0807     1.2546    20.8329 </r>
       <r>    34.2918     0.5687    20.9529 </r>
       <r>    34.5028     0.5301    21.0648 </r>
       <r>    34.7139     0.2360    21.1146 </r>
       <r>    34.9250     0.1765    21.1519 </r>
       <r>    35.1360     0.2199    21.1983 </r>
       <r>    35.3471     0.7209    21.3504 </r>
       <r>    35.5582     0.5827    21.4734 </r>
       <r>    35.7692     0.3315    21.5434 </r>
       <r>    35.9803     0.6935    21.6898 </r>
       <r>    36.1914     0.4415    21.7829 </r>
       <r>    36.4024    -0.0431    21.7739 </r>
       <r>    36.6135     0.6567    21.9125 </r>
       <r>    36.8246     0.9871    22.1208 </r>
       <r>    37.0356     0.2160    22.1664 </r>
       <r>    37.2467     0.7484    22.3244 </r>
       <r>    37.4578     0.8436    22.5024 </r>
       <r>    37.6688     0.2680    22.5590 </r>
       <r>    37.8799     0.2620    22.6143 </r>
       <r>    38.0910     0.8415    22.7919 </r>
       <r>    38.3020     0.4500    22.8869 </r>
       <r>    38.5131     0.5069    22.9939 </r>
       <r>    38.7242     0.8180    23.1665 </r>
       <r>    38.9352     0.5238    23.2771 </r>
       <r>    39.1463     0.2333    23.3263 </r>
       <r>    39.3574     0.3707    23.4045 </r>
       <r>    39.5684     0.3986    23.4887 </r>
       <r>    39.7795     0.7962    23.6567 </r>
       <r>    39.9906     0.8016    23.8259 </r>
       <r>    40.2016     0.2236    23.8731 </r>
       <r>    40.4127     0.1502    23.9048 </r>
       <r>    40.6238     0.8042    24.0746 </r>
       <r>    40.8348     1.1364    24.3144 </r>
       <r>    41.0459     0.3977    24.3984 </r>
       <r>    41.2570     0.0841    24.4161 </r>
       <r>    41.4680     0.0475    24.4261 </r>
       <r>    41.6791     0.2665    24.4824 </r>
       <r>    41.8902     1.1519    24.7255 </r>
       <r>    42.1012     0.9633    24.9288 </r>
       <r>    42.3123     0.7246    25.0818 </r>
       <r>    42.5234     1.0369    25.3006 </r>
       <r>    42.7344     0.5786    25.4227 </r>
       <r>    42.9455     0.4386    25.5153 </r>
       <r>    43.1566     0.7793    25.6798 </r>
       <r>    43.3677     0.4864    25.7824 </r>
       <r>    43.5787     0.5396    25.8963 </r>
       <r>    43.7898     0.5453    26.0114 </r>
       <r>    44.0009     0.3966    26.0951 </r>
       <r>    44.2119     0.7661    26.2568 </r>
       <r>    44.4230     0.6523    26.3945 </r>
       <r>    44.6341     0.4813    26.4961 </r>
       <r>    44.8451     0.6129    26.6254 </r>
       <r>    45.0562     0.5841    26.7487 </r>
       <r>    45.2673     0.1756    26.7858 </r>
       <r>    45.4783     0.3684    26.8635 </r>
       <r>    45.6894     0.5611    26.9820 </r>
       <r>    45.9005     0.4997    27.0874 </r>
       <r>    46.1115     0.8019    27.2567 </r>
       <r>    46.3226     0.9309    27.4532 </r>
       <r>    46.5337     0.4604    27.5503 </r>
       <r>    46.7447     0.1929    27.5911 </r>
       <r>    46.9558     0.3590    27.6668 </r>
       <r>    47.1669     1.0412    27.8866 </r>
       <r>    47.3779     0.3542    27.9614 </r>
       <r>    47.5890     0.8403    28.1387 </r>
       <r>    47.8001     0.9705    28.3436 </r>
       <r>    48.0111     0.5400    28.4575 </r>
       <r>    48.2222     1.4244    28.7582 </r>
       <r>    48.4333     0.9430    28.9572 </r>
       <r>    48.6443     0.0693    28.9718 </r>
       <r>    48.8554     0.2057    29.0153 </r>
       <r>    49.0665     0.1723    29.0516 </r>
       <r>    49.2775     0.3855    29.1330 </r>
       <r>    49.4886     0.3764    29.2124 </r>
       <r>    49.6997     0.2478    29.2647 </r>
       <r>    49.9107     0.8862    29.4518 </r>
       <r>    50.1218     0.9756    29.6577 </r>
       <r>    50.3329    -0.0392    29.6494 </r>
       <r>    50.5439     0.6737    29.7916 </r>
       <r>    50.7550     1.5757    30.1242 </r>
       <r>    50.9661     0.4128    30.2113 </r>
       <r>    51.1771     0.2822    30.2709 </r>
       <r>    51.3882     0.3093    30.3362 </r>
       <r>    51.5993     0.4134    30.4234 </r>
       <r>    51.8103     0.6964    30.5704 </r>
       <r>    52.0214     0.4607    30.6677 </r>
       <r>    52.2325     0.4335    30.7592 </r>
       <r>    52.4435     0.6883    30.9044 </r>
       <r>    52.6546     0.6084    31.0329 </r>
       <r>    52.8657     0.3330    31.1032 </r>
       <r>    53.0767     0.7490    31.2612 </r>
       <r>    53.2878     0.9736    31.4667 </r>
       <r>    53.4989     0.6852    31.6114 </r>
       <r>    53.7099     0.3118    31.6772 </r>
       <r>    53.9210     0.4591    31.7741 </r>
       <r>    54.1321     0.0405    31.7826 </r>
       <r>    54.3431     0.0271    31.7884 </r>
       <r>    54.5542     0.1019    31.8099 </r>
       <r>    54.7653     0.0301    31.8162 </r>
       <r>    54.9763     0.3376    31.8875 </r>
       <r>    55.1874     0.5115    31.9954 </r>
       <r>    55.3985     0.0324    32.0023 </r>
       <r>    55.6095    -0.0106    32.0000 </r>
       <r>    55.8206    -0.0002    32.0000 </r>
       <r>    56.0317    -0.0000    32.0000 </r>
       <r>    56.2427    -0.0000    32.0000 </r>
       <r>    56.4538    -0.0000    32.0000 </r>
       <r>    56.6649     0.0000    32.0000 </r>
       <r>    56.8759     0.0000    32.0000 </r>
       <r>    57.0870     0.0000    32.0000 </r>
       <r>    57.2981     0.0000    32.0000 </r>
       <r>    57.5091     0.0000    32.0000 </r>
       <r>    57.7202     0.0000    32.0000 </r>
       <r>    57.9313     0.0000    32.0000 </r>
      </set>
     </set>
    </array>
   </total>
  </dos>
 </calculation>
 <structure name="finalpos" >
  <crystal>
   <varray name="basis" >
    <v>       2.86000000       0.00000000       0.00000000 </v>
    <v>       0.00000000       2.86000000       0.00000000 </v>
    <v>       0.00000000       0.00000000       2.86000000 </v>
   </varray>
   <i name="volume">     23.39365600 </i>
   <varray name="rec_basis" >
    <v>       0.34965035       0.00000000       0.00000000 </v>
    <v>       0.00000000       0.34965035       0.00000000 </v>
    <v>       0.00000000       0.00000000       0.34965035 </v>
   </varray>
  </crystal>
  <varray name="positions" >
   <v>       0.00000000       0.00000000       0.00000000 </v>
   <v>       0.50000000       0.50000000       0.50000000 </v>
  </varray>
 </structure>
</modeling>
